# vtk DataFile Version 2.0
Volume example
ASCII
DATASET STRUCTURED_POINTS
DIMENSIONS 11 11 1
ASPECT_RATIO 1 1 1
ORIGIN 0 0 0
POINT_DATA 121
SCALARS volume_scalars char 1
LOOKUP_TABLE default
100    85    70    55    30     0   -30   -55   -70   -85  -100    85    72    59    47    25     0   -25   -47   -59   -72   -85    70    59    49    39    21     0   -21   -38   -49   -59   -70    55    47    39    30    17     0   -16   -30   -38   -47   -55    30    25    21    17     9     0    -9   -16   -21   -25   -30     0     0     0     0     0     0     0    -0    -0    -0    -0   -30   -25   -21   -16    -9     0     9    17    21    25    30   -55   -47   -38   -30   -16     0    17    30    38    47    55   -70   -59   -49   -38   -21    -0    21    38    49    59    70   -85   -72   -59   -47   -25    -0    26    47    59    72    85  -100   -85   -70   -55   -30    -0    30    55    70    85   100
