# vtk DataFile Version 2.0
Volume example
ASCII
DATASET STRUCTURED_POINTS
DIMENSIONS 11 11 1
ASPECT_RATIO 1 1 1
ORIGIN 0 0 0
POINT_DATA 121
SCALARS volume_scalars char 1
LOOKUP_TABLE default
100    90    81    56    31    -0   -31   -56   -81   -90  -100    90    82    73    51    28    -0   -28   -51   -73   -82   -90    81    73    65    45    25    -0   -25   -45   -65   -73   -81    56    51    45    31    17    -0   -17   -31   -45   -51   -56    31    28    25    17    10    -0   -10   -17   -25   -28   -31    -0    -0    -0    -0    -0    -0    -0    -0    -0    -0    -0   -31   -28   -25   -17   -10    -0    10    17    25    28    31   -56   -51   -45   -31   -17    -0    17    31    45    51    56   -81   -73   -65   -45   -25    -0    25    45    65    73    81   -90   -82   -73   -51   -28    -0    28    51    73    82    90  -100   -90   -81   -56   -31    -0    31    56    81    90   100
