# vtk DataFile Version 2.0
Volume example
ASCII
DATASET STRUCTURED_POINTS
DIMENSIONS 11 11 1
ASPECT_RATIO 1 1 1
ORIGIN 0 0 0
POINT_DATA 121
SCALARS volume_scalars char 1
LOOKUP_TABLE default
100    95    81    59    31    -0   -31   -59   -81   -95  -100    95    90    77    56    29    -0   -29   -56   -77   -90   -95    81    77    65    48    25    -0   -25   -48   -65   -77   -81    59    56    48    35    18    -0   -18   -35   -48   -56   -59    31    29    25    18    10    -0   -10   -18   -25   -29   -31    -0    -0    -0    -0    -0    -0    -0    -0    -0    -0    -0   -31   -29   -25   -18   -10    -0    10    18    25    29    31   -59   -56   -48   -35   -18    -0    18    35    48    56    59   -81   -77   -65   -48   -25    -0    25    48    65    77    81   -95   -90   -77   -56   -29    -0    29    56    77    90    95  -100   -95   -81   -59   -31    -0    31    59    81    95   100
