# vtk DataFile Version 2.0
Volume example
ASCII
DATASET STRUCTURED_POINTS
DIMENSIONS 11 11 1
ASPECT_RATIO 1 1 1
ORIGIN 0 0 0
POINT_DATA 121
SCALARS volume_scalars char 1
LOOKUP_TABLE default
100    80    60    40    20    -0   -20   -40   -60   -80  -100    80    64    48    32    16    -0   -16   -32   -48   -64   -80    60    48    36    24    12    -0   -12   -24   -36   -48   -60    40    32    24    16     8    -0    -8   -16   -24   -32   -40    20    16    12     8     4    -0    -4    -8   -12   -16   -20    -0    -0    -0    -0    -0    -0    -0    -0    -0    -0    -0   -20   -16   -12    -8    -4    -0     4     8    12    16    20   -40   -32   -24   -16    -8    -0     8    16    24    32    40   -60   -48   -36   -24   -12    -0    12    24    36    48    60   -80   -64   -48   -32   -16    -0    16    32    48    64    80  -100   -80   -60   -40   -20    -0    20    40    60    80   100
