# vtk DataFile Version 2.0
Volume example
ASCII
DATASET STRUCTURED_POINTS
DIMENSIONS 25 25 1
ASPECT_RATIO 1 1 1
ORIGIN 0 0 0
POINT_DATA 625
SCALARS volume_scalars char 1
LOOKUP_TABLE default
100    99    97    92    87    79    71    61    50    38    26    13     0   -13   -26   -38   -50   -61   -71   -79   -87   -92   -97   -99  -100    99    98    96    92    86    79    70    60    50    38    26    13     0   -13   -26   -38   -50   -60   -70   -79   -86   -92   -96   -98   -99    97    96    93    89    84    77    68    59    48    37    25    13     0   -13   -25   -37   -48   -59   -68   -77   -84   -89   -93   -96   -97    92    92    89    85    80    73    65    56    46    35    24    12     0   -12   -24   -35   -46   -56   -65   -73   -80   -85   -89   -92   -92    87    86    84    80    75    69    61    53    43    33    22    11     0   -11   -22   -33   -43   -53   -61   -69   -75   -80   -84   -86   -87    79    79    77    73    69    63    56    48    40    30    21    10     0   -10   -21   -30   -40   -48   -56   -63   -69   -73   -77   -79   -79    71    70    68    65    61    56    50    43    35    27    18     9     0    -9   -18   -27   -35   -43   -50   -56   -61   -65   -68   -70   -71    61    60    59    56    53    48    43    37    30    23    16     8     0    -8   -16   -23   -30   -37   -43   -48   -53   -56   -59   -60   -61    50    50    48    46    43    40    35    30    25    19    13     7     0    -7   -13   -19   -25   -30   -35   -40   -43   -46   -48   -50   -50    38    38    37    35    33    30    27    23    19    15    10     5     0    -5   -10   -15   -19   -23   -27   -30   -33   -35   -37   -38   -38    26    26    25    24    22    21    18    16    13    10     7     3     0    -3    -7   -10   -13   -16   -18   -21   -22   -24   -25   -26   -26    13    13    13    12    11    10     9     8     7     5     3     2     0    -2    -3    -5    -7    -8    -9   -10   -11   -12   -13   -13   -13     0     0     0     0     0     0     0     0     0     0     0     0     0    -0    -0    -0    -0    -0    -0    -0    -0    -0    -0    -0    -0   -13   -13   -13   -12   -11   -10    -9    -8    -7    -5    -3    -2    -0     2     3     5     7     8     9    10    11    12    13    13    13   -26   -26   -25   -24   -22   -21   -18   -16   -13   -10    -7    -3    -0     3     7    10    13    16    18    21    22    24    25    26    26   -38   -38   -37   -35   -33   -30   -27   -23   -19   -15   -10    -5    -0     5    10    15    19    23    27    30    33    35    37    38    38   -50   -50   -48   -46   -43   -40   -35   -30   -25   -19   -13    -7    -0     7    13    19    25    30    35    40    43    46    48    50    50   -61   -60   -59   -56   -53   -48   -43   -37   -30   -23   -16    -8    -0     8    16    23    30    37    43    48    53    56    59    60    61   -71   -70   -68   -65   -61   -56   -50   -43   -35   -27   -18    -9    -0     9    18    27    35    43    50    56    61    65    68    70    71   -79   -79   -77   -73   -69   -63   -56   -48   -40   -30   -21   -10    -0    10    21    30    40    48    56    63    69    73    77    79    79   -87   -86   -84   -80   -75   -69   -61   -53   -43   -33   -22   -11    -0    11    22    33    43    53    61    69    75    80    84    86    87   -92   -92   -89   -85   -80   -73   -65   -56   -46   -35   -24   -12    -0    12    24    35    46    56    65    73    80    85    89    92    92   -97   -96   -93   -89   -84   -77   -68   -59   -48   -37   -25   -13    -0    13    25    37    48    59    68    77    84    89    93    96    97   -99   -98   -96   -92   -86   -79   -70   -60   -50   -38   -26   -13    -0    13    26    38    50    60    70    79    86    92    96    98    99  -100   -99   -97   -92   -87   -79   -71   -61   -50   -38   -26   -13    -0    13    26    38    50    61    71    79    87    92    97    99   100
