# vtk DataFile Version 2.0
Volume example
ASCII
DATASET STRUCTURED_POINTS
DIMENSIONS 5 5 1
ASPECT_RATIO 1 1 1
ORIGIN 0 0 0
POINT_DATA 25
SCALARS volume_scalars char 1
LOOKUP_TABLE default
100    71     0   -71  -100    71    50     0   -50   -71     0     0     0    -0    -0   -71   -50    -0    50    71  -100   -71    -0    71   100
