# vtk DataFile Version 2.0
Volume example
ASCII
DATASET STRUCTURED_POINTS
DIMENSIONS 3 3 1
ASPECT_RATIO 1 1 1
ORIGIN 0 0 0
POINT_DATA 9
SCALARS volume_scalars char 1
LOOKUP_TABLE default
100     0  -100     0     0    -0  -100    -0   100
