# vtk DataFile Version 2.0
Volume example
ASCII
DATASET STRUCTURED_POINTS
DIMENSIONS 54 54 1
ASPECT_RATIO 1 1 1
ORIGIN 0 0 0
POINT_DATA 2916
SCALARS volume_scalars char 1
LOOKUP_TABLE default
100   100    99    98    97    96    94    92    89    86    83    79    76    72    67    63    58    53    48    43    38    32    26    21    15     9     3    -3    -9   -15   -21   -26   -32   -38   -43   -48   -53   -58   -63   -67   -72   -76   -79   -83   -86   -89   -92   -94   -96   -97   -98   -99  -100  -100   100   100    99    98    97    95    94    91    89    86    83    79    76    72    67    63    58    53    48    43    38    32    26    21    15     9     3    -3    -9   -15   -21   -26   -32   -38   -43   -48   -53   -58   -63   -67   -72   -76   -79   -83   -86   -89   -91   -94   -95   -97   -98   -99  -100  -100    99    99    99    98    97    95    93    91    88    86    82    79    75    71    67    63    58    53    48    43    37    32    26    20    15     9     3    -3    -9   -15   -20   -26   -32   -37   -43   -48   -53   -58   -63   -67   -71   -75   -79   -82   -86   -88   -91   -93   -95   -97   -98   -99   -99   -99    98    98    98    97    96    94    92    90    88    85    82    78    75    71    66    62    57    53    48    42    37    32    26    20    15     9     3    -3    -9   -15   -20   -26   -32   -37   -42   -48   -53   -57   -62   -66   -71   -75   -78   -82   -85   -88   -90   -92   -94   -96   -97   -98   -98   -98    97    97    97    96    94    93    91    89    86    84    81    77    74    70    66    61    57    52    47    42    37    31    26    20    14     9     3    -3    -9   -14   -20   -26   -31   -37   -42   -47   -52   -57   -61   -66   -70   -74   -77   -81   -84   -86   -89   -91   -93   -94   -96   -97   -97   -97    96    95    95    94    93    91    90    88    85    82    79    76    72    69    65    60    56    51    46    41    36    31    25    20    14     8     3    -3    -8   -14   -20   -25   -31   -36   -41   -46   -51   -56   -60   -65   -69   -72   -76   -79   -82   -85   -88   -90   -91   -93   -94   -95   -95   -96    94    94    93    92    91    90    88    86    83    81    78    75    71    67    63    59    55    50    45    40    35    30    25    19    14     8     3    -3    -8   -14   -19   -25   -30   -35   -40   -45   -50   -55   -59   -63   -67   -71   -75   -78   -81   -83   -86   -88   -90   -91   -92   -93   -94   -94    92    91    91    90    89    88    86    84    81    79    76    73    69    66    62    58    53    49    44    39    34    29    24    19    14     8     3    -3    -8   -14   -19   -24   -29   -34   -39   -44   -49   -53   -58   -62   -66   -69   -73   -76   -79   -81   -84   -86   -88   -89   -90   -91   -91   -92    89    89    88    88    86    85    83    81    79    77    74    71    67    64    60    56    52    47    43    38    33    28    23    18    13     8     3    -3    -8   -13   -18   -23   -28   -33   -38   -43   -47   -52   -56   -60   -64   -67   -71   -74   -77   -79   -81   -83   -85   -86   -88   -88   -89   -89    86    86    86    85    84    82    81    79    77    74    71    68    65    62    58    54    50    46    42    37    32    28    23    18    13     8     3    -3    -8   -13   -18   -23   -28   -32   -37   -42   -46   -50   -54   -58   -62   -65   -68   -71   -74   -77   -79   -81   -82   -84   -85   -86   -86   -86    83    83    82    82    81    79    78    76    74    71    69    66    63    60    56    52    48    44    40    36    31    27    22    17    12     7     2    -2    -7   -12   -17   -22   -27   -31   -36   -40   -44   -48   -52   -56   -60   -63   -66   -69   -71   -74   -76   -78   -79   -81   -82   -82   -83   -83    79    79    79    78    77    76    75    73    71    68    66    63    60    57    54    50    46    42    38    34    30    25    21    16    12     7     2    -2    -7   -12   -16   -21   -25   -30   -34   -38   -42   -46   -50   -54   -57   -60   -63   -66   -68   -71   -73   -75   -76   -77   -78   -79   -79   -79    76    76    75    75    74    72    71    69    67    65    63    60    57    54    51    48    44    40    37    33    28    24    20    16    11     7     2    -2    -7   -11   -16   -20   -24   -28   -33   -37   -40   -44   -48   -51   -54   -57   -60   -63   -65   -67   -69   -71   -72   -74   -75   -75   -76   -76    72    72    71    71    70    69    67    66    64    62    60    57    54    51    48    45    42    38    35    31    27    23    19    15    11     6     2    -2    -6   -11   -15   -19   -23   -27   -31   -35   -38   -42   -45   -48   -51   -54   -57   -60   -62   -64   -66   -67   -69   -70   -71   -71   -72   -72    67    67    67    66    66    65    63    62    60    58    56    54    51    48    46    43    39    36    33    29    25    22    18    14    10     6     2    -2    -6   -10   -14   -18   -22   -25   -29   -33   -36   -39   -43   -46   -48   -51   -54   -56   -58   -60   -62   -63   -65   -66   -66   -67   -67   -67    63    63    63    62    61    60    59    58    56    54    52    50    48    45    43    40    37    34    30    27    24    20    17    13     9     6     2    -2    -6    -9   -13   -17   -20   -24   -27   -30   -34   -37   -40   -43   -45   -48   -50   -52   -54   -56   -58   -59   -60   -61   -62   -63   -63   -63    58    58    58    57    57    56    55    53    52    50    48    46    44    42    39    37    34    31    28    25    22    19    15    12     9     5     2    -2    -5    -9   -12   -15   -19   -22   -25   -28   -31   -34   -37   -39   -42   -44   -46   -48   -50   -52   -53   -55   -56   -57   -57   -58   -58   -58    53    53    53    53    52    51    50    49    47    46    44    42    40    38    36    34    31    28    26    23    20    17    14    11     8     5     2    -2    -5    -8   -11   -14   -17   -20   -23   -26   -28   -31   -34   -36   -38   -40   -42   -44   -46   -47   -49   -50   -51   -52   -53   -53   -53   -53    48    48    48    48    47    46    45    44    43    42    40    38    37    35    33    30    28    26    23    21    18    15    13    10     7     4     1    -1    -4    -7   -10   -13   -15   -18   -21   -23   -26   -28   -30   -33   -35   -37   -38   -40   -42   -43   -44   -45   -46   -47   -48   -48   -48   -48    43    43    43    42    42    41    40    39    38    37    36    34    33    31    29    27    25    23    21    18    16    14    11     9     6     4     1    -1    -4    -6    -9   -11   -14   -16   -18   -21   -23   -25   -27   -29   -31   -33   -34   -36   -37   -38   -39   -40   -41   -42   -42   -43   -43   -43    38    38    37    37    37    36    35    34    33    32    31    30    28    27    25    24    22    20    18    16    14    12    10     8     6     3     1    -1    -3    -6    -8   -10   -12   -14   -16   -18   -20   -22   -24   -25   -27   -28   -30   -31   -32   -33   -34   -35   -36   -37   -37   -37   -38   -38    32    32    32    32    31    31    30    29    28    28    27    25    24    23    22    20    19    17    15    14    12    10     8     7     5     3     1    -1    -3    -5    -7    -8   -10   -12   -14   -15   -17   -19   -20   -22   -23   -24   -25   -27   -28   -28   -29   -30   -31   -31   -32   -32   -32   -32    26    26    26    26    26    25    25    24    23    23    22    21    20    19    18    17    15    14    13    11    10     8     7     5     4     2     1    -1    -2    -4    -5    -7    -8   -10   -11   -13   -14   -15   -17   -18   -19   -20   -21   -22   -23   -23   -24   -25   -25   -26   -26   -26   -26   -26    21    21    20    20    20    20    19    19    18    18    17    16    16    15    14    13    12    11    10     9     8     7     5     4     3     2     1    -1    -2    -3    -4    -5    -7    -8    -9   -10   -11   -12   -13   -14   -15   -16   -16   -17   -18   -18   -19   -19   -20   -20   -20   -20   -21   -21    15    15    15    15    14    14    14    14    13    13    12    12    11    11    10     9     9     8     7     6     6     5     4     3     2     1     0    -0    -1    -2    -3    -4    -5    -6    -6    -7    -8    -9    -9   -10   -11   -11   -12   -12   -13   -13   -14   -14   -14   -14   -15   -15   -15   -15     9     9     9     9     9     8     8     8     8     8     7     7     7     6     6     6     5     5     4     4     3     3     2     2     1     1     0    -0    -1    -1    -2    -2    -3    -3    -4    -4    -5    -5    -6    -6    -6    -7    -7    -7    -8    -8    -8    -8    -8    -9    -9    -9    -9    -9     3     3     3     3     3     3     3     3     3     3     2     2     2     2     2     2     2     2     1     1     1     1     1     1     0     0     0    -0    -0    -0    -1    -1    -1    -1    -1    -1    -2    -2    -2    -2    -2    -2    -2    -2    -3    -3    -3    -3    -3    -3    -3    -3    -3    -3    -3    -3    -3    -3    -3    -3    -3    -3    -3    -3    -2    -2    -2    -2    -2    -2    -2    -2    -1    -1    -1    -1    -1    -1    -0    -0    -0     0     0     0     1     1     1     1     1     1     2     2     2     2     2     2     2     2     3     3     3     3     3     3     3     3     3     3    -9    -9    -9    -9    -9    -8    -8    -8    -8    -8    -7    -7    -7    -6    -6    -6    -5    -5    -4    -4    -3    -3    -2    -2    -1    -1    -0     0     1     1     2     2     3     3     4     4     5     5     6     6     6     7     7     7     8     8     8     8     8     9     9     9     9     9   -15   -15   -15   -15   -14   -14   -14   -14   -13   -13   -12   -12   -11   -11   -10    -9    -9    -8    -7    -6    -6    -5    -4    -3    -2    -1    -0     0     1     2     3     4     5     6     6     7     8     9     9    10    11    11    12    12    13    13    14    14    14    14    15    15    15    15   -21   -21   -20   -20   -20   -20   -19   -19   -18   -18   -17   -16   -16   -15   -14   -13   -12   -11   -10    -9    -8    -7    -5    -4    -3    -2    -1     1     2     3     4     5     7     8     9    10    11    12    13    14    15    16    16    17    18    18    19    19    20    20    20    20    21    21   -26   -26   -26   -26   -26   -25   -25   -24   -23   -23   -22   -21   -20   -19   -18   -17   -15   -14   -13   -11   -10    -8    -7    -5    -4    -2    -1     1     2     4     5     7     8    10    11    13    14    15    17    18    19    20    21    22    23    23    24    25    25    26    26    26    26    26   -32   -32   -32   -32   -31   -31   -30   -29   -28   -28   -27   -25   -24   -23   -22   -20   -19   -17   -15   -14   -12   -10    -8    -7    -5    -3    -1     1     3     5     7     8    10    12    14    15    17    19    20    22    23    24    25    27    28    28    29    30    31    31    32    32    32    32   -38   -38   -37   -37   -37   -36   -35   -34   -33   -32   -31   -30   -28   -27   -25   -24   -22   -20   -18   -16   -14   -12   -10    -8    -6    -3    -1     1     3     6     8    10    12    14    16    18    20    22    24    25    27    28    30    31    32    33    34    35    36    37    37    37    38    38   -43   -43   -43   -42   -42   -41   -40   -39   -38   -37   -36   -34   -33   -31   -29   -27   -25   -23   -21   -18   -16   -14   -11    -9    -6    -4    -1     1     4     6     9    11    14    16    18    21    23    25    27    29    31    33    34    36    37    38    39    40    41    42    42    43    43    43   -48   -48   -48   -48   -47   -46   -45   -44   -43   -42   -40   -38   -37   -35   -33   -30   -28   -26   -23   -21   -18   -15   -13   -10    -7    -4    -1     1     4     7    10    13    15    18    21    23    26    28    30    33    35    37    38    40    42    43    44    45    46    47    48    48    48    48   -53   -53   -53   -53   -52   -51   -50   -49   -47   -46   -44   -42   -40   -38   -36   -34   -31   -28   -26   -23   -20   -17   -14   -11    -8    -5    -2     2     5     8    11    14    17    20    23    26    28    31    34    36    38    40    42    44    46    47    49    50    51    52    53    53    53    53   -58   -58   -58   -57   -57   -56   -55   -53   -52   -50   -48   -46   -44   -42   -39   -37   -34   -31   -28   -25   -22   -19   -15   -12    -9    -5    -2     2     5     9    12    15    19    22    25    28    31    34    37    39    42    44    46    48    50    52    53    55    56    57    57    58    58    58   -63   -63   -63   -62   -61   -60   -59   -58   -56   -54   -52   -50   -48   -45   -43   -40   -37   -34   -30   -27   -24   -20   -17   -13    -9    -6    -2     2     6     9    13    17    20    24    27    30    34    37    40    43    45    48    50    52    54    56    58    59    60    61    62    63    63    63   -67   -67   -67   -66   -66   -65   -63   -62   -60   -58   -56   -54   -51   -48   -46   -43   -39   -36   -33   -29   -25   -22   -18   -14   -10    -6    -2     2     6    10    14    18    22    25    29    33    36    39    43    46    48    51    54    56    58    60    62    63    65    66    66    67    67    67   -72   -72   -71   -71   -70   -69   -67   -66   -64   -62   -60   -57   -54   -51   -48   -45   -42   -38   -35   -31   -27   -23   -19   -15   -11    -6    -2     2     6    11    15    19    23    27    31    35    38    42    45    48    51    54    57    60    62    64    66    67    69    70    71    71    72    72   -76   -76   -75   -75   -74   -72   -71   -69   -67   -65   -63   -60   -57   -54   -51   -48   -44   -40   -37   -33   -28   -24   -20   -16   -11    -7    -2     2     7    11    16    20    24    28    33    37    40    44    48    51    54    57    60    63    65    67    69    71    72    74    75    75    76    76   -79   -79   -79   -78   -77   -76   -75   -73   -71   -68   -66   -63   -60   -57   -54   -50   -46   -42   -38   -34   -30   -25   -21   -16   -12    -7    -2     2     7    12    16    21    25    30    34    38    42    46    50    54    57    60    63    66    68    71    73    75    76    77    78    79    79    79   -83   -83   -82   -82   -81   -79   -78   -76   -74   -71   -69   -66   -63   -60   -56   -52   -48   -44   -40   -36   -31   -27   -22   -17   -12    -7    -2     2     7    12    17    22    27    31    36    40    44    48    52    56    60    63    66    69    71    74    76    78    79    81    82    82    83    83   -86   -86   -86   -85   -84   -82   -81   -79   -77   -74   -71   -68   -65   -62   -58   -54   -50   -46   -42   -37   -32   -28   -23   -18   -13    -8    -3     3     8    13    18    23    28    32    37    42    46    50    54    58    62    65    68    71    74    77    79    81    82    84    85    86    86    86   -89   -89   -88   -88   -86   -85   -83   -81   -79   -77   -74   -71   -67   -64   -60   -56   -52   -47   -43   -38   -33   -28   -23   -18   -13    -8    -3     3     8    13    18    23    28    33    38    43    47    52    56    60    64    67    71    74    77    79    81    83    85    86    88    88    89    89   -92   -91   -91   -90   -89   -88   -86   -84   -81   -79   -76   -73   -69   -66   -62   -58   -53   -49   -44   -39   -34   -29   -24   -19   -14    -8    -3     3     8    14    19    24    29    34    39    44    49    53    58    62    66    69    73    76    79    81    84    86    88    89    90    91    91    92   -94   -94   -93   -92   -91   -90   -88   -86   -83   -81   -78   -75   -71   -67   -63   -59   -55   -50   -45   -40   -35   -30   -25   -19   -14    -8    -3     3     8    14    19    25    30    35    40    45    50    55    59    63    67    71    75    78    81    83    86    88    90    91    92    93    94    94   -96   -95   -95   -94   -93   -91   -90   -88   -85   -82   -79   -76   -72   -69   -65   -60   -56   -51   -46   -41   -36   -31   -25   -20   -14    -8    -3     3     8    14    20    25    31    36    41    46    51    56    60    65    69    72    76    79    82    85    88    90    91    93    94    95    95    96   -97   -97   -97   -96   -94   -93   -91   -89   -86   -84   -81   -77   -74   -70   -66   -61   -57   -52   -47   -42   -37   -31   -26   -20   -14    -9    -3     3     9    14    20    26    31    37    42    47    52    57    61    66    70    74    77    81    84    86    89    91    93    94    96    97    97    97   -98   -98   -98   -97   -96   -94   -92   -90   -88   -85   -82   -78   -75   -71   -66   -62   -57   -53   -48   -42   -37   -32   -26   -20   -15    -9    -3     3     9    15    20    26    32    37    42    48    53    57    62    66    71    75    78    82    85    88    90    92    94    96    97    98    98    98   -99   -99   -99   -98   -97   -95   -93   -91   -88   -86   -82   -79   -75   -71   -67   -63   -58   -53   -48   -43   -37   -32   -26   -20   -15    -9    -3     3     9    15    20    26    32    37    43    48    53    58    63    67    71    75    79    82    86    88    91    93    95    97    98    99    99    99  -100  -100   -99   -98   -97   -95   -94   -91   -89   -86   -83   -79   -76   -72   -67   -63   -58   -53   -48   -43   -38   -32   -26   -21   -15    -9    -3     3     9    15    21    26    32    38    43    48    53    58    63    67    72    76    79    83    86    89    91    94    95    97    98    99   100   100  -100  -100   -99   -98   -97   -96   -94   -92   -89   -86   -83   -79   -76   -72   -67   -63   -58   -53   -48   -43   -38   -32   -26   -21   -15    -9    -3     3     9    15    21    26    32    38    43    48    53    58    63    67    72    76    79    83    86    89    92    94    96    97    98    99   100   100
