# vtk DataFile Version 2.0
Volume example
ASCII
DATASET STRUCTURED_POINTS
DIMENSIONS 33 33 1
ASPECT_RATIO 1 1 1
ORIGIN 0 0 0
POINT_DATA 1089
SCALARS volume_scalars char 1
LOOKUP_TABLE default
100   100    98    96    92    88    83    77    71    63    56    47    38    29    20    10     0   -10   -20   -29   -38   -47   -56   -63   -71   -77   -83   -88   -92   -96   -98  -100  -100   100    99    98    95    92    88    83    77    70    63    55    47    38    29    19    10     0   -10   -19   -29   -38   -47   -55   -63   -70   -77   -83   -88   -92   -95   -98   -99  -100    98    98    96    94    91    86    82    76    69    62    54    46    38    28    19    10     0   -10   -19   -28   -38   -46   -54   -62   -69   -76   -82   -86   -91   -94   -96   -98   -98    96    95    94    92    88    84    80    74    68    61    53    45    37    28    19     9     0    -9   -19   -28   -37   -45   -53   -61   -68   -74   -80   -84   -88   -92   -94   -95   -96    92    92    91    88    85    81    77    71    65    59    51    44    35    27    18     9     0    -9   -18   -27   -35   -44   -51   -59   -65   -71   -77   -81   -85   -88   -91   -92   -92    88    88    86    84    81    78    73    68    62    56    49    42    34    26    17     9     0    -9   -17   -26   -34   -42   -49   -56   -62   -68   -73   -78   -81   -84   -86   -88   -88    83    83    82    80    77    73    69    64    59    53    46    39    32    24    16     8     0    -8   -16   -24   -32   -39   -46   -53   -59   -64   -69   -73   -77   -80   -82   -83   -83    77    77    76    74    71    68    64    60    55    49    43    36    30    22    15     8     0    -8   -15   -22   -30   -36   -43   -49   -55   -60   -64   -68   -71   -74   -76   -77   -77    71    70    69    68    65    62    59    55    50    45    39    33    27    21    14     7     0    -7   -14   -21   -27   -33   -39   -45   -50   -55   -59   -62   -65   -68   -69   -70   -71    63    63    62    61    59    56    53    49    45    40    35    30    24    18    12     6     0    -6   -12   -18   -24   -30   -35   -40   -45   -49   -53   -56   -59   -61   -62   -63   -63    56    55    54    53    51    49    46    43    39    35    31    26    21    16    11     5     0    -5   -11   -16   -21   -26   -31   -35   -39   -43   -46   -49   -51   -53   -54   -55   -56    47    47    46    45    44    42    39    36    33    30    26    22    18    14     9     5     0    -5    -9   -14   -18   -22   -26   -30   -33   -36   -39   -42   -44   -45   -46   -47   -47    38    38    38    37    35    34    32    30    27    24    21    18    15    11     7     4     0    -4    -7   -11   -15   -18   -21   -24   -27   -30   -32   -34   -35   -37   -38   -38   -38    29    29    28    28    27    26    24    22    21    18    16    14    11     8     6     3     0    -3    -6    -8   -11   -14   -16   -18   -21   -22   -24   -26   -27   -28   -28   -29   -29    20    19    19    19    18    17    16    15    14    12    11     9     7     6     4     2     0    -2    -4    -6    -7    -9   -11   -12   -14   -15   -16   -17   -18   -19   -19   -19   -20    10    10    10     9     9     9     8     8     7     6     5     5     4     3     2     1     0    -1    -2    -3    -4    -5    -5    -6    -7    -8    -8    -9    -9    -9   -10   -10   -10     0     0     0     0     0     0     0     0     0     0     0     0     0     0     0     0     0     0     0     0     0     0     0     0     0     0     0     0     0     0     0     0     0   -10   -10   -10    -9    -9    -9    -8    -8    -7    -6    -5    -5    -4    -3    -2    -1     0     1     2     3     4     5     5     6     7     8     8     9     9     9    10    10    10   -20   -19   -19   -19   -18   -17   -16   -15   -14   -12   -11    -9    -7    -6    -4    -2     0     2     4     6     7     9    11    12    14    15    16    17    18    19    19    19    20   -29   -29   -28   -28   -27   -26   -24   -22   -21   -18   -16   -14   -11    -8    -6    -3     0     3     6     8    11    14    16    18    21    22    24    26    27    28    28    29    29   -38   -38   -38   -37   -35   -34   -32   -30   -27   -24   -21   -18   -15   -11    -7    -4     0     4     7    11    15    18    21    24    27    30    32    34    35    37    38    38    38   -47   -47   -46   -45   -44   -42   -39   -36   -33   -30   -26   -22   -18   -14    -9    -5     0     5     9    14    18    22    26    30    33    36    39    42    44    45    46    47    47   -56   -55   -54   -53   -51   -49   -46   -43   -39   -35   -31   -26   -21   -16   -11    -5     0     5    11    16    21    26    31    35    39    43    46    49    51    53    54    55    56   -63   -63   -62   -61   -59   -56   -53   -49   -45   -40   -35   -30   -24   -18   -12    -6     0     6    12    18    24    30    35    40    45    49    53    56    59    61    62    63    63   -71   -70   -69   -68   -65   -62   -59   -55   -50   -45   -39   -33   -27   -21   -14    -7     0     7    14    21    27    33    39    45    50    55    59    62    65    68    69    70    71   -77   -77   -76   -74   -71   -68   -64   -60   -55   -49   -43   -36   -30   -22   -15    -8    -0     8    15    22    30    36    43    49    55    60    64    68    71    74    76    77    77   -83   -83   -82   -80   -77   -73   -69   -64   -59   -53   -46   -39   -32   -24   -16    -8    -0     8    16    24    32    39    46    53    59    64    69    73    77    80    82    83    83   -88   -88   -86   -84   -81   -78   -73   -68   -62   -56   -49   -42   -34   -26   -17    -9    -0     9    17    26    34    42    49    56    62    68    73    78    81    84    86    88    88   -92   -92   -91   -88   -85   -81   -77   -71   -65   -59   -51   -44   -35   -27   -18    -9    -0     9    18    27    35    44    51    59    65    71    77    81    85    88    91    92    92   -96   -95   -94   -92   -88   -84   -80   -74   -68   -61   -53   -45   -37   -28   -19    -9    -0     9    19    28    37    45    53    61    68    74    80    84    88    92    94    95    96   -98   -98   -96   -94   -91   -86   -82   -76   -69   -62   -54   -46   -38   -28   -19   -10    -0    10    19    28    38    46    54    62    69    76    82    86    91    94    96    98    98  -100   -99   -98   -95   -92   -88   -83   -77   -70   -63   -55   -47   -38   -29   -19   -10    -0    10    19    29    38    47    55    63    70    77    83    88    92    95    98    99   100  -100  -100   -98   -96   -92   -88   -83   -77   -71   -63   -56   -47   -38   -29   -20   -10    -0    10    20    29    38    47    56    63    71    77    83    88    92    96    98   100   100
