# vtk DataFile Version 2.0
Volume example
ASCII
DATASET STRUCTURED_POINTS
DIMENSIONS 35 35 1
ASPECT_RATIO 1 1 1
ORIGIN 0 0 0
POINT_DATA 1225
SCALARS volume_scalars char 1
LOOKUP_TABLE default
100   100    98    96    93    90    85    80    74    67    60    53    45    36    27    18     9    -0    -9   -18   -27   -36   -45   -53   -60   -67   -74   -80   -85   -90   -93   -96   -98  -100  -100   100    99    98    96    93    89    85    79    74    67    60    52    44    36    27    18     9    -0    -9   -18   -27   -36   -44   -52   -60   -67   -74   -79   -85   -89   -93   -96   -98   -99  -100    98    98    97    95    92    88    84    78    73    66    59    52    44    36    27    18     9    -0    -9   -18   -27   -36   -44   -52   -59   -66   -73   -78   -84   -88   -92   -95   -97   -98   -98    96    96    95    93    90    86    82    77    71    65    58    51    43    35    26    18     9    -0    -9   -18   -26   -35   -43   -51   -58   -65   -71   -77   -82   -86   -90   -93   -95   -96   -96    93    93    92    90    87    83    79    74    69    63    56    49    42    34    26    17     9    -0    -9   -17   -26   -34   -42   -49   -56   -63   -69   -74   -79   -83   -87   -90   -92   -93   -93    90    89    88    86    83    80    76    71    66    60    54    47    40    32    24    16     8    -0    -8   -16   -24   -32   -40   -47   -54   -60   -66   -71   -76   -80   -83   -86   -88   -89   -90    85    85    84    82    79    76    72    68    63    57    51    45    38    31    23    16     8    -0    -8   -16   -23   -31   -38   -45   -51   -57   -63   -68   -72   -76   -79   -82   -84   -85   -85    80    79    78    77    74    71    68    64    59    54    48    42    36    29    22    15     7    -0    -7   -15   -22   -29   -36   -42   -48   -54   -59   -64   -68   -71   -74   -77   -78   -79   -80    74    74    73    71    69    66    63    59    55    50    45    39    33    27    20    14     7    -0    -7   -14   -20   -27   -33   -39   -45   -50   -55   -59   -63   -66   -69   -71   -73   -74   -74    67    67    66    65    63    60    57    54    50    45    41    35    30    24    18    12     6    -0    -6   -12   -18   -24   -30   -35   -41   -45   -50   -54   -57   -60   -63   -65   -66   -67   -67    60    60    59    58    56    54    51    48    45    41    36    32    27    22    16    11     6    -0    -6   -11   -16   -22   -27   -32   -36   -41   -45   -48   -51   -54   -56   -58   -59   -60   -60    53    52    52    51    49    47    45    42    39    35    32    28    23    19    14    10     5    -0    -5   -10   -14   -19   -23   -28   -32   -35   -39   -42   -45   -47   -49   -51   -52   -52   -53    45    44    44    43    42    40    38    36    33    30    27    23    20    16    12     8     4    -0    -4    -8   -12   -16   -20   -23   -27   -30   -33   -36   -38   -40   -42   -43   -44   -44   -45    36    36    36    35    34    32    31    29    27    24    22    19    16    13    10     7     3    -0    -3    -7   -10   -13   -16   -19   -22   -24   -27   -29   -31   -32   -34   -35   -36   -36   -36    27    27    27    26    26    24    23    22    20    18    16    14    12    10     7     5     3    -0    -3    -5    -7   -10   -12   -14   -16   -18   -20   -22   -23   -24   -26   -26   -27   -27   -27    18    18    18    18    17    16    16    15    14    12    11    10     8     7     5     3     2    -0    -2    -3    -5    -7    -8   -10   -11   -12   -14   -15   -16   -16   -17   -18   -18   -18   -18     9     9     9     9     9     8     8     7     7     6     6     5     4     3     3     2     1    -0    -1    -2    -3    -3    -4    -5    -6    -6    -7    -7    -8    -8    -9    -9    -9    -9    -9    -0    -0    -0    -0    -0    -0    -0    -0    -0    -0    -0    -0    -0    -0    -0    -0    -0    -0    -0    -0    -0    -0    -0    -0    -0    -0    -0    -0    -0     0     0     0     0     0     0    -9    -9    -9    -9    -9    -8    -8    -7    -7    -6    -6    -5    -4    -3    -3    -2    -1    -0     1     2     3     3     4     5     6     6     7     7     8     8     9     9     9     9     9   -18   -18   -18   -18   -17   -16   -16   -15   -14   -12   -11   -10    -8    -7    -5    -3    -2    -0     2     3     5     7     8    10    11    12    14    15    16    16    17    18    18    18    18   -27   -27   -27   -26   -26   -24   -23   -22   -20   -18   -16   -14   -12   -10    -7    -5    -3    -0     3     5     7    10    12    14    16    18    20    22    23    24    26    26    27    27    27   -36   -36   -36   -35   -34   -32   -31   -29   -27   -24   -22   -19   -16   -13   -10    -7    -3    -0     3     7    10    13    16    19    22    24    27    29    31    32    34    35    36    36    36   -45   -44   -44   -43   -42   -40   -38   -36   -33   -30   -27   -23   -20   -16   -12    -8    -4    -0     4     8    12    16    20    23    27    30    33    36    38    40    42    43    44    44    45   -53   -52   -52   -51   -49   -47   -45   -42   -39   -35   -32   -28   -23   -19   -14   -10    -5    -0     5    10    14    19    23    28    32    35    39    42    45    47    49    51    52    52    53   -60   -60   -59   -58   -56   -54   -51   -48   -45   -41   -36   -32   -27   -22   -16   -11    -6    -0     6    11    16    22    27    32    36    41    45    48    51    54    56    58    59    60    60   -67   -67   -66   -65   -63   -60   -57   -54   -50   -45   -41   -35   -30   -24   -18   -12    -6    -0     6    12    18    24    30    35    41    45    50    54    57    60    63    65    66    67    67   -74   -74   -73   -71   -69   -66   -63   -59   -55   -50   -45   -39   -33   -27   -20   -14    -7    -0     7    14    20    27    33    39    45    50    55    59    63    66    69    71    73    74    74   -80   -79   -78   -77   -74   -71   -68   -64   -59   -54   -48   -42   -36   -29   -22   -15    -7    -0     7    15    22    29    36    42    48    54    59    64    68    71    74    77    78    79    80   -85   -85   -84   -82   -79   -76   -72   -68   -63   -57   -51   -45   -38   -31   -23   -16    -8    -0     8    16    23    31    38    45    51    57    63    68    72    76    79    82    84    85    85   -90   -89   -88   -86   -83   -80   -76   -71   -66   -60   -54   -47   -40   -32   -24   -16    -8    -0     8    16    24    32    40    47    54    60    66    71    76    80    83    86    88    89    90   -93   -93   -92   -90   -87   -83   -79   -74   -69   -63   -56   -49   -42   -34   -26   -17    -9    -0     9    17    26    34    42    49    56    63    69    74    79    83    87    90    92    93    93   -96   -96   -95   -93   -90   -86   -82   -77   -71   -65   -58   -51   -43   -35   -26   -18    -9    -0     9    18    26    35    43    51    58    65    71    77    82    86    90    93    95    96    96   -98   -98   -97   -95   -92   -88   -84   -78   -73   -66   -59   -52   -44   -36   -27   -18    -9    -0     9    18    27    36    44    52    59    66    73    78    84    88    92    95    97    98    98  -100   -99   -98   -96   -93   -89   -85   -79   -74   -67   -60   -52   -44   -36   -27   -18    -9    -0     9    18    27    36    44    52    60    67    74    79    85    89    93    96    98    99   100  -100  -100   -98   -96   -93   -90   -85   -80   -74   -67   -60   -53   -45   -36   -27   -18    -9    -0     9    18    27    36    45    53    60    67    74    80    85    90    93    96    98   100   100
