# vtk DataFile Version 2.0
Volume example
ASCII
DATASET STRUCTURED_POINTS
DIMENSIONS 37 37 1
ASPECT_RATIO 1 1 1
ORIGIN 0 0 0
POINT_DATA 1369
SCALARS volume_scalars char 1
LOOKUP_TABLE default
100   100    98    97    94    91    87    82    77    71    64    57    50    42    34    26    17     9     0    -9   -17   -26   -34   -42   -50   -57   -64   -71   -77   -82   -87   -91   -94   -97   -98  -100  -100   100    99    98    96    94    90    86    82    76    70    64    57    50    42    34    26    17     9     0    -9   -17   -26   -34   -42   -50   -57   -64   -70   -76   -82   -86   -90   -94   -96   -98   -99  -100    98    98    97    95    93    89    85    81    75    70    63    56    49    42    34    25    17     9     0    -9   -17   -25   -34   -42   -49   -56   -63   -70   -75   -81   -85   -89   -93   -95   -97   -98   -98    97    96    95    93    91    88    84    79    74    68    62    55    48    41    33    25    17     8     0    -8   -17   -25   -33   -41   -48   -55   -62   -68   -74   -79   -84   -88   -91   -93   -95   -96   -97    94    94    93    91    88    85    81    77    72    66    60    54    47    40    32    24    16     8     0    -8   -16   -24   -32   -40   -47   -54   -60   -66   -72   -77   -81   -85   -88   -91   -93   -94   -94    91    90    89    88    85    82    78    74    69    64    58    52    45    38    31    23    16     8     0    -8   -16   -23   -31   -38   -45   -52   -58   -64   -69   -74   -78   -82   -85   -88   -89   -90   -91    87    86    85    84    81    78    75    71    66    61    56    50    43    37    30    22    15     8     0    -8   -15   -22   -30   -37   -43   -50   -56   -61   -66   -71   -75   -78   -81   -84   -85   -86   -87    82    82    81    79    77    74    71    67    63    58    53    47    41    35    28    21    14     7     0    -7   -14   -21   -28   -35   -41   -47   -53   -58   -63   -67   -71   -74   -77   -79   -81   -82   -82    77    76    75    74    72    69    66    63    59    54    49    44    38    32    26    20    13     7     0    -7   -13   -20   -26   -32   -38   -44   -49   -54   -59   -63   -66   -69   -72   -74   -75   -76   -77    71    70    70    68    66    64    61    58    54    50    45    41    35    30    24    18    12     6     0    -6   -12   -18   -24   -30   -35   -41   -45   -50   -54   -58   -61   -64   -66   -68   -70   -70   -71    64    64    63    62    60    58    56    53    49    45    41    37    32    27    22    17    11     6    -0    -6   -11   -17   -22   -27   -32   -37   -41   -45   -49   -53   -56   -58   -60   -62   -63   -64   -64    57    57    56    55    54    52    50    47    44    41    37    33    29    24    20    15    10     5    -0    -5   -10   -15   -20   -24   -29   -33   -37   -41   -44   -47   -50   -52   -54   -55   -56   -57   -57    50    50    49    48    47    45    43    41    38    35    32    29    25    21    17    13     9     4    -0    -4    -9   -13   -17   -21   -25   -29   -32   -35   -38   -41   -43   -45   -47   -48   -49   -50   -50    42    42    42    41    40    38    37    35    32    30    27    24    21    18    14    11     7     4    -0    -4    -7   -11   -14   -18   -21   -24   -27   -30   -32   -35   -37   -38   -40   -41   -42   -42   -42    34    34    34    33    32    31    30    28    26    24    22    20    17    14    12     9     6     3    -0    -3    -6    -9   -12   -14   -17   -20   -22   -24   -26   -28   -30   -31   -32   -33   -34   -34   -34    26    26    25    25    24    23    22    21    20    18    17    15    13    11     9     7     4     2    -0    -2    -4    -7    -9   -11   -13   -15   -17   -18   -20   -21   -22   -23   -24   -25   -25   -26   -26    17    17    17    17    16    16    15    14    13    12    11    10     9     7     6     4     3     2    -0    -2    -3    -4    -6    -7    -9   -10   -11   -12   -13   -14   -15   -16   -16   -17   -17   -17   -17     9     9     9     8     8     8     8     7     7     6     6     5     4     4     3     2     2     1    -0    -1    -2    -2    -3    -4    -4    -5    -6    -6    -7    -7    -8    -8    -8    -8    -9    -9    -9     0     0     0     0     0     0     0     0     0    -0    -0    -0    -0    -0    -0    -0    -0    -0    -0    -0    -0    -0    -0    -0    -0    -0    -0    -0    -0    -0    -0    -0    -0    -0    -0    -0    -0    -9    -9    -9    -8    -8    -8    -8    -7    -7    -6    -6    -5    -4    -4    -3    -2    -2    -1    -0     1     2     2     3     4     4     5     6     6     7     7     8     8     8     8     9     9     9   -17   -17   -17   -17   -16   -16   -15   -14   -13   -12   -11   -10    -9    -7    -6    -4    -3    -2    -0     2     3     4     6     7     9    10    11    12    13    14    15    16    16    17    17    17    17   -26   -26   -25   -25   -24   -23   -22   -21   -20   -18   -17   -15   -13   -11    -9    -7    -4    -2    -0     2     4     7     9    11    13    15    17    18    20    21    22    23    24    25    25    26    26   -34   -34   -34   -33   -32   -31   -30   -28   -26   -24   -22   -20   -17   -14   -12    -9    -6    -3    -0     3     6     9    12    14    17    20    22    24    26    28    30    31    32    33    34    34    34   -42   -42   -42   -41   -40   -38   -37   -35   -32   -30   -27   -24   -21   -18   -14   -11    -7    -4    -0     4     7    11    14    18    21    24    27    30    32    35    37    38    40    41    42    42    42   -50   -50   -49   -48   -47   -45   -43   -41   -38   -35   -32   -29   -25   -21   -17   -13    -9    -4    -0     4     9    13    17    21    25    29    32    35    38    41    43    45    47    48    49    50    50   -57   -57   -56   -55   -54   -52   -50   -47   -44   -41   -37   -33   -29   -24   -20   -15   -10    -5    -0     5    10    15    20    24    29    33    37    41    44    47    50    52    54    55    56    57    57   -64   -64   -63   -62   -60   -58   -56   -53   -49   -45   -41   -37   -32   -27   -22   -17   -11    -6    -0     6    11    17    22    27    32    37    41    45    49    53    56    58    60    62    63    64    64   -71   -70   -70   -68   -66   -64   -61   -58   -54   -50   -45   -41   -35   -30   -24   -18   -12    -6    -0     6    12    18    24    30    35    41    45    50    54    58    61    64    66    68    70    70    71   -77   -76   -75   -74   -72   -69   -66   -63   -59   -54   -49   -44   -38   -32   -26   -20   -13    -7    -0     7    13    20    26    32    38    44    49    54    59    63    66    69    72    74    75    76    77   -82   -82   -81   -79   -77   -74   -71   -67   -63   -58   -53   -47   -41   -35   -28   -21   -14    -7    -0     7    14    21    28    35    41    47    53    58    63    67    71    74    77    79    81    82    82   -87   -86   -85   -84   -81   -78   -75   -71   -66   -61   -56   -50   -43   -37   -30   -22   -15    -8    -0     8    15    22    30    37    43    50    56    61    66    71    75    78    81    84    85    86    87   -91   -90   -89   -88   -85   -82   -78   -74   -69   -64   -58   -52   -45   -38   -31   -23   -16    -8    -0     8    16    23    31    38    45    52    58    64    69    74    78    82    85    88    89    90    91   -94   -94   -93   -91   -88   -85   -81   -77   -72   -66   -60   -54   -47   -40   -32   -24   -16    -8    -0     8    16    24    32    40    47    54    60    66    72    77    81    85    88    91    93    94    94   -97   -96   -95   -93   -91   -88   -84   -79   -74   -68   -62   -55   -48   -41   -33   -25   -17    -8    -0     8    17    25    33    41    48    55    62    68    74    79    84    88    91    93    95    96    97   -98   -98   -97   -95   -93   -89   -85   -81   -75   -70   -63   -56   -49   -42   -34   -25   -17    -9    -0     9    17    25    34    42    49    56    63    70    75    81    85    89    93    95    97    98    98  -100   -99   -98   -96   -94   -90   -86   -82   -76   -70   -64   -57   -50   -42   -34   -26   -17    -9    -0     9    17    26    34    42    50    57    64    70    76    82    86    90    94    96    98    99   100  -100  -100   -98   -97   -94   -91   -87   -82   -77   -71   -64   -57   -50   -42   -34   -26   -17    -9    -0     9    17    26    34    42    50    57    64    71    77    82    87    91    94    97    98   100   100
