# vtk DataFile Version 2.0
Volume example
ASCII
DATASET STRUCTURED_POINTS
DIMENSIONS 24 24 1
ASPECT_RATIO 1 1 1
ORIGIN 0 0 0
POINT_DATA 576
SCALARS volume_scalars char 1
LOOKUP_TABLE default
100    99    96    92    85    78    68    58    46    33    20     7    -7   -20   -33   -46   -58   -68   -78   -85   -92   -96   -99  -100    99    98    95    91    85    77    68    57    46    33    20     7    -7   -20   -33   -46   -57   -68   -77   -85   -91   -95   -98   -99    96    95    93    88    82    75    66    56    44    32    20     7    -7   -20   -32   -44   -56   -66   -75   -82   -88   -93   -95   -96    92    91    88    84    78    71    63    53    42    31    19     6    -6   -19   -31   -42   -53   -63   -71   -78   -84   -88   -91   -92    85    85    82    78    73    66    58    49    39    29    17     6    -6   -17   -29   -39   -49   -58   -66   -73   -78   -82   -85   -85    78    77    75    71    66    60    53    45    36    26    16     5    -5   -16   -26   -36   -45   -53   -60   -66   -71   -75   -77   -78    68    68    66    63    58    53    47    39    31    23    14     5    -5   -14   -23   -31   -39   -47   -53   -58   -63   -66   -68   -68    58    57    56    53    49    45    39    33    27    19    12     4    -4   -12   -19   -27   -33   -39   -45   -49   -53   -56   -57   -58    46    46    44    42    39    36    31    27    21    15     9     3    -3    -9   -15   -21   -27   -31   -36   -39   -42   -44   -46   -46    33    33    32    31    29    26    23    19    15    11     7     2    -2    -7   -11   -15   -19   -23   -26   -29   -31   -32   -33   -33    20    20    20    19    17    16    14    12     9     7     4     1    -1    -4    -7    -9   -12   -14   -16   -17   -19   -20   -20   -20     7     7     7     6     6     5     5     4     3     2     1     0    -0    -1    -2    -3    -4    -5    -5    -6    -6    -7    -7    -7    -7    -7    -7    -6    -6    -5    -5    -4    -3    -2    -1    -0     0     1     2     3     4     5     5     6     6     7     7     7   -20   -20   -20   -19   -17   -16   -14   -12    -9    -7    -4    -1     1     4     7     9    12    14    16    17    19    20    20    20   -33   -33   -32   -31   -29   -26   -23   -19   -15   -11    -7    -2     2     7    11    15    19    23    26    29    31    32    33    33   -46   -46   -44   -42   -39   -36   -31   -27   -21   -15    -9    -3     3     9    15    21    27    31    36    39    42    44    46    46   -58   -57   -56   -53   -49   -45   -39   -33   -27   -19   -12    -4     4    12    19    27    33    39    45    49    53    56    57    58   -68   -68   -66   -63   -58   -53   -47   -39   -31   -23   -14    -5     5    14    23    31    39    47    53    58    63    66    68    68   -78   -77   -75   -71   -66   -60   -53   -45   -36   -26   -16    -5     5    16    26    36    45    53    60    66    71    75    77    78   -85   -85   -82   -78   -73   -66   -58   -49   -39   -29   -17    -6     6    17    29    39    49    58    66    73    78    82    85    85   -92   -91   -88   -84   -78   -71   -63   -53   -42   -31   -19    -6     6    19    31    42    53    63    71    78    84    88    91    92   -96   -95   -93   -88   -82   -75   -66   -56   -44   -32   -20    -7     7    20    32    44    56    66    75    82    88    93    95    96   -99   -98   -95   -91   -85   -77   -68   -57   -46   -33   -20    -7     7    20    33    46    57    68    77    85    91    95    98    99  -100   -99   -96   -92   -85   -78   -68   -58   -46   -33   -20    -7     7    20    33    46    58    68    78    85    92    96    99   100
