# vtk DataFile Version 2.0
Volume example
ASCII
DATASET STRUCTURED_POINTS
DIMENSIONS 16 16 1
ASPECT_RATIO 1 1 1
ORIGIN 0 0 0
POINT_DATA 256
SCALARS volume_scalars char 1
LOOKUP_TABLE default
100    98    91    81    67    50    31    10   -10   -31   -50   -67   -81   -91   -98  -100    98    96    89    79    65    49    30    10   -10   -30   -49   -65   -79   -89   -96   -98    91    89    83    74    61    46    28    10   -10   -28   -46   -61   -74   -83   -89   -91    81    79    74    65    54    40    25     8    -8   -25   -40   -54   -65   -74   -79   -81    67    65    61    54    45    33    21     7    -7   -21   -33   -45   -54   -61   -65   -67    50    49    46    40    33    25    15     5    -5   -15   -25   -33   -40   -46   -49   -50    31    30    28    25    21    15    10     3    -3   -10   -15   -21   -25   -28   -30   -31    10    10    10     8     7     5     3     1    -1    -3    -5    -7    -8   -10   -10   -10   -10   -10   -10    -8    -7    -5    -3    -1     1     3     5     7     8    10    10    10   -31   -30   -28   -25   -21   -15   -10    -3     3    10    15    21    25    28    30    31   -50   -49   -46   -40   -33   -25   -15    -5     5    15    25    33    40    46    49    50   -67   -65   -61   -54   -45   -33   -21    -7     7    21    33    45    54    61    65    67   -81   -79   -74   -65   -54   -40   -25    -8     8    25    40    54    65    74    79    81   -91   -89   -83   -74   -61   -46   -28   -10    10    28    46    61    74    83    89    91   -98   -96   -89   -79   -65   -49   -30   -10    10    30    49    65    79    89    96    98  -100   -98   -91   -81   -67   -50   -31   -10    10    31    50    67    81    91    98   100
