# vtk DataFile Version 2.0
Volume example
ASCII
DATASET STRUCTURED_POINTS
DIMENSIONS 31 31 1
ASPECT_RATIO 1 1 1
ORIGIN 0 0 0
POINT_DATA 961
SCALARS volume_scalars char 1
LOOKUP_TABLE default
100    99    98    95    91    87    81    74    67    59    50    41    31    21    10    -0   -10   -21   -31   -41   -50   -59   -67   -74   -81   -87   -91   -95   -98   -99  -100    99    99    97    95    91    86    80    74    67    58    50    40    31    21    10    -0   -10   -21   -31   -40   -50   -58   -67   -74   -80   -86   -91   -95   -97   -99   -99    98    97    96    93    89    85    79    73    65    57    49    40    30    20    10    -0   -10   -20   -30   -40   -49   -57   -65   -73   -79   -85   -89   -93   -96   -97   -98    95    95    93    90    87    82    77    71    64    56    48    39    29    20    10    -0   -10   -20   -29   -39   -48   -56   -64   -71   -77   -82   -87   -90   -93   -95   -95    91    91    89    87    83    79    74    68    61    54    46    37    28    19    10    -0   -10   -19   -28   -37   -46   -54   -61   -68   -74   -79   -83   -87   -89   -91   -91    87    86    85    82    79    75    70    64    58    51    43    35    27    18     9    -0    -9   -18   -27   -35   -43   -51   -58   -64   -70   -75   -79   -82   -85   -86   -87    81    80    79    77    74    70    65    60    54    48    40    33    25    17     8    -0    -8   -17   -25   -33   -40   -48   -54   -60   -65   -70   -74   -77   -79   -80   -81    74    74    73    71    68    64    60    55    50    44    37    30    23    15     8    -0    -8   -15   -23   -30   -37   -44   -50   -55   -60   -64   -68   -71   -73   -74   -74    67    67    65    64    61    58    54    50    45    39    33    27    21    14     7    -0    -7   -14   -21   -27   -33   -39   -45   -50   -54   -58   -61   -64   -65   -67   -67    59    58    57    56    54    51    48    44    39    35    29    24    18    12     6    -0    -6   -12   -18   -24   -29   -35   -39   -44   -48   -51   -54   -56   -57   -58   -59    50    50    49    48    46    43    40    37    33    29    25    20    15    10     5    -0    -5   -10   -15   -20   -25   -29   -33   -37   -40   -43   -46   -48   -49   -50   -50    41    40    40    39    37    35    33    30    27    24    20    17    13     8     4     0    -4    -8   -13   -17   -20   -24   -27   -30   -33   -35   -37   -39   -40   -40   -41    31    31    30    29    28    27    25    23    21    18    15    13    10     6     3     0    -3    -6   -10   -13   -15   -18   -21   -23   -25   -27   -28   -29   -30   -31   -31    21    21    20    20    19    18    17    15    14    12    10     8     6     4     2     0    -2    -4    -6    -8   -10   -12   -14   -15   -17   -18   -19   -20   -20   -21   -21    10    10    10    10    10     9     8     8     7     6     5     4     3     2     1     0    -1    -2    -3    -4    -5    -6    -7    -8    -8    -9   -10   -10   -10   -10   -10    -0    -0    -0    -0    -0     0     0     0     0     0     0     0     0     0     0     0     0     0     0     0     0     0     0     0     0     0     0     0     0     0     0   -10   -10   -10   -10   -10    -9    -8    -8    -7    -6    -5    -4    -3    -2    -1     0     1     2     3     4     5     6     7     8     8     9    10    10    10    10    10   -21   -21   -20   -20   -19   -18   -17   -15   -14   -12   -10    -8    -6    -4    -2     0     2     4     6     8    10    12    14    15    17    18    19    20    20    21    21   -31   -31   -30   -29   -28   -27   -25   -23   -21   -18   -15   -13   -10    -6    -3     0     3     6    10    13    15    18    21    23    25    27    28    29    30    31    31   -41   -40   -40   -39   -37   -35   -33   -30   -27   -24   -20   -17   -13    -8    -4     0     4     8    13    17    20    24    27    30    33    35    37    39    40    40    41   -50   -50   -49   -48   -46   -43   -40   -37   -33   -29   -25   -20   -15   -10    -5     0     5    10    15    20    25    29    33    37    40    43    46    48    49    50    50   -59   -58   -57   -56   -54   -51   -48   -44   -39   -35   -29   -24   -18   -12    -6     0     6    12    18    24    29    35    39    44    48    51    54    56    57    58    59   -67   -67   -65   -64   -61   -58   -54   -50   -45   -39   -33   -27   -21   -14    -7     0     7    14    21    27    33    39    45    50    54    58    61    64    65    67    67   -74   -74   -73   -71   -68   -64   -60   -55   -50   -44   -37   -30   -23   -15    -8     0     8    15    23    30    37    44    50    55    60    64    68    71    73    74    74   -81   -80   -79   -77   -74   -70   -65   -60   -54   -48   -40   -33   -25   -17    -8     0     8    17    25    33    40    48    54    60    65    70    74    77    79    80    81   -87   -86   -85   -82   -79   -75   -70   -64   -58   -51   -43   -35   -27   -18    -9     0     9    18    27    35    43    51    58    64    70    75    79    82    85    86    87   -91   -91   -89   -87   -83   -79   -74   -68   -61   -54   -46   -37   -28   -19   -10     0    10    19    28    37    46    54    61    68    74    79    83    87    89    91    91   -95   -95   -93   -90   -87   -82   -77   -71   -64   -56   -48   -39   -29   -20   -10     0    10    20    29    39    48    56    64    71    77    82    87    90    93    95    95   -98   -97   -96   -93   -89   -85   -79   -73   -65   -57   -49   -40   -30   -20   -10     0    10    20    30    40    49    57    65    73    79    85    89    93    96    97    98   -99   -99   -97   -95   -91   -86   -80   -74   -67   -58   -50   -40   -31   -21   -10     0    10    21    31    40    50    58    67    74    80    86    91    95    97    99    99  -100   -99   -98   -95   -91   -87   -81   -74   -67   -59   -50   -41   -31   -21   -10     0    10    21    31    41    50    59    67    74    81    87    91    95    98    99   100
