# vtk DataFile Version 2.0
Volume example
ASCII
DATASET STRUCTURED_POINTS
DIMENSIONS 9 9 1
ASPECT_RATIO 1 1 1
ORIGIN 0 0 0
POINT_DATA 81
SCALARS volume_scalars char 1
LOOKUP_TABLE default
100    92    71    38     0   -38   -71   -92  -100    92    85    65    35     0   -35   -65   -85   -92    71    65    50    27     0   -27   -50   -65   -71    38    35    27    15     0   -15   -27   -35   -38     0     0     0     0     0    -0    -0    -0    -0   -38   -35   -27   -15    -0    15    27    35    38   -71   -65   -50   -27    -0    27    50    65    71   -92   -85   -65   -35    -0    35    65    85    92  -100   -92   -71   -38    -0    38    71    92   100
