# vtk DataFile Version 2.0
Volume example
ASCII
DATASET STRUCTURED_POINTS
DIMENSIONS 36 36 1
ASPECT_RATIO 1 1 1
ORIGIN 0 0 0
POINT_DATA 1296
SCALARS volume_scalars char 1
LOOKUP_TABLE default
100   100    98    96    94    90    86    81    75    69    62    55    47    39    31    22    13     4    -4   -13   -22   -31   -39   -47   -55   -62   -69   -75   -81   -86   -90   -94   -96   -98  -100  -100   100    99    98    96    93    90    85    81    75    69    62    55    47    39    31    22    13     4    -4   -13   -22   -31   -39   -47   -55   -62   -69   -75   -81   -85   -90   -93   -96   -98   -99  -100    98    98    97    95    92    89    84    80    74    68    61    54    47    39    30    22    13     4    -4   -13   -22   -30   -39   -47   -54   -61   -68   -74   -80   -84   -89   -92   -95   -97   -98   -98    96    96    95    93    90    87    83    78    73    67    60    53    46    38    30    21    13     4    -4   -13   -21   -30   -38   -46   -53   -60   -67   -73   -78   -83   -87   -90   -93   -95   -96   -96    94    93    92    90    88    84    80    76    71    65    58    52    44    37    29    21    13     4    -4   -13   -21   -29   -37   -44   -52   -58   -65   -71   -76   -80   -84   -88   -90   -92   -93   -94    90    90    89    87    84    81    77    73    68    62    56    50    43    35    28    20    12     4    -4   -12   -20   -28   -35   -43   -50   -56   -62   -68   -73   -77   -81   -84   -87   -89   -90   -90    86    85    84    83    80    77    74    69    65    59    54    47    41    34    27    19    12     4    -4   -12   -19   -27   -34   -41   -47   -54   -59   -65   -69   -74   -77   -80   -83   -84   -85   -86    81    81    80    78    76    73    69    65    61    56    50    45    38    32    25    18    11     4    -4   -11   -18   -25   -32   -38   -45   -50   -56   -61   -65   -69   -73   -76   -78   -80   -81   -81    75    75    74    73    71    68    65    61    57    52    47    41    36    30    23    17    10     3    -3   -10   -17   -23   -30   -36   -41   -47   -52   -57   -61   -65   -68   -71   -73   -74   -75   -75    69    69    68    67    65    62    59    56    52    48    43    38    33    27    21    15     9     3    -3    -9   -15   -21   -27   -33   -38   -43   -48   -52   -56   -59   -62   -65   -67   -68   -69   -69    62    62    61    60    58    56    54    50    47    43    39    34    30    25    19    14     8     3    -3    -8   -14   -19   -25   -30   -34   -39   -43   -47   -50   -54   -56   -58   -60   -61   -62   -62    55    55    54    53    52    50    47    45    41    38    34    30    26    22    17    12     7     2    -2    -7   -12   -17   -22   -26   -30   -34   -38   -41   -45   -47   -50   -52   -53   -54   -55   -55    47    47    47    46    44    43    41    38    36    33    30    26    22    19    15    11     6     2    -2    -6   -11   -15   -19   -22   -26   -30   -33   -36   -38   -41   -43   -44   -46   -47   -47   -47    39    39    39    38    37    35    34    32    30    27    25    22    19    15    12     9     5     2    -2    -5    -9   -12   -15   -19   -22   -25   -27   -30   -32   -34   -35   -37   -38   -39   -39   -39    31    31    30    30    29    28    27    25    23    21    19    17    15    12    10     7     4     1    -1    -4    -7   -10   -12   -15   -17   -19   -21   -23   -25   -27   -28   -29   -30   -30   -31   -31    22    22    22    21    21    20    19    18    17    15    14    12    11     9     7     5     3     1    -1    -3    -5    -7    -9   -11   -12   -14   -15   -17   -18   -19   -20   -21   -21   -22   -22   -22    13    13    13    13    13    12    12    11    10     9     8     7     6     5     4     3     2     1    -1    -2    -3    -4    -5    -6    -7    -8    -9   -10   -11   -12   -12   -13   -13   -13   -13   -13     4     4     4     4     4     4     4     4     3     3     3     2     2     2     1     1     1     0    -0    -1    -1    -1    -2    -2    -2    -3    -3    -3    -4    -4    -4    -4    -4    -4    -4    -4    -4    -4    -4    -4    -4    -4    -4    -4    -3    -3    -3    -2    -2    -2    -1    -1    -1    -0     0     1     1     1     2     2     2     3     3     3     4     4     4     4     4     4     4     4   -13   -13   -13   -13   -13   -12   -12   -11   -10    -9    -8    -7    -6    -5    -4    -3    -2    -1     1     2     3     4     5     6     7     8     9    10    11    12    12    13    13    13    13    13   -22   -22   -22   -21   -21   -20   -19   -18   -17   -15   -14   -12   -11    -9    -7    -5    -3    -1     1     3     5     7     9    11    12    14    15    17    18    19    20    21    21    22    22    22   -31   -31   -30   -30   -29   -28   -27   -25   -23   -21   -19   -17   -15   -12   -10    -7    -4    -1     1     4     7    10    12    15    17    19    21    23    25    27    28    29    30    30    31    31   -39   -39   -39   -38   -37   -35   -34   -32   -30   -27   -25   -22   -19   -15   -12    -9    -5    -2     2     5     9    12    15    19    22    25    27    30    32    34    35    37    38    39    39    39   -47   -47   -47   -46   -44   -43   -41   -38   -36   -33   -30   -26   -22   -19   -15   -11    -6    -2     2     6    11    15    19    22    26    30    33    36    38    41    43    44    46    47    47    47   -55   -55   -54   -53   -52   -50   -47   -45   -41   -38   -34   -30   -26   -22   -17   -12    -7    -2     2     7    12    17    22    26    30    34    38    41    45    47    50    52    53    54    55    55   -62   -62   -61   -60   -58   -56   -54   -50   -47   -43   -39   -34   -30   -25   -19   -14    -8    -3     3     8    14    19    25    30    34    39    43    47    50    54    56    58    60    61    62    62   -69   -69   -68   -67   -65   -62   -59   -56   -52   -48   -43   -38   -33   -27   -21   -15    -9    -3     3     9    15    21    27    33    38    43    48    52    56    59    62    65    67    68    69    69   -75   -75   -74   -73   -71   -68   -65   -61   -57   -52   -47   -41   -36   -30   -23   -17   -10    -3     3    10    17    23    30    36    41    47    52    57    61    65    68    71    73    74    75    75   -81   -81   -80   -78   -76   -73   -69   -65   -61   -56   -50   -45   -38   -32   -25   -18   -11    -4     4    11    18    25    32    38    45    50    56    61    65    69    73    76    78    80    81    81   -86   -85   -84   -83   -80   -77   -74   -69   -65   -59   -54   -47   -41   -34   -27   -19   -12    -4     4    12    19    27    34    41    47    54    59    65    69    74    77    80    83    84    85    86   -90   -90   -89   -87   -84   -81   -77   -73   -68   -62   -56   -50   -43   -35   -28   -20   -12    -4     4    12    20    28    35    43    50    56    62    68    73    77    81    84    87    89    90    90   -94   -93   -92   -90   -88   -84   -80   -76   -71   -65   -58   -52   -44   -37   -29   -21   -13    -4     4    13    21    29    37    44    52    58    65    71    76    80    84    88    90    92    93    94   -96   -96   -95   -93   -90   -87   -83   -78   -73   -67   -60   -53   -46   -38   -30   -21   -13    -4     4    13    21    30    38    46    53    60    67    73    78    83    87    90    93    95    96    96   -98   -98   -97   -95   -92   -89   -84   -80   -74   -68   -61   -54   -47   -39   -30   -22   -13    -4     4    13    22    30    39    47    54    61    68    74    80    84    89    92    95    97    98    98  -100   -99   -98   -96   -93   -90   -85   -81   -75   -69   -62   -55   -47   -39   -31   -22   -13    -4     4    13    22    31    39    47    55    62    69    75    81    85    90    93    96    98    99   100  -100  -100   -98   -96   -94   -90   -86   -81   -75   -69   -62   -55   -47   -39   -31   -22   -13    -4     4    13    22    31    39    47    55    62    69    75    81    86    90    94    96    98   100   100
