# vtk DataFile Version 2.0
Volume example
ASCII
DATASET STRUCTURED_POINTS
DIMENSIONS 20 20 1
ASPECT_RATIO 1 1 1
ORIGIN 0 0 0
POINT_DATA 400
SCALARS volume_scalars char 1
LOOKUP_TABLE default
100    99    95    88    79    68    55    40    25     8    -8   -25   -40   -55   -68   -79   -88   -95   -99  -100    99    97    93    87    78    67    54    40    24     8    -8   -24   -40   -54   -67   -78   -87   -93   -97   -99    95    93    89    83    75    64    52    38    23     8    -8   -23   -38   -52   -64   -75   -83   -89   -93   -95    88    87    83    77    69    60    48    35    22     7    -7   -22   -35   -48   -60   -69   -77   -83   -87   -88    79    78    75    69    62    53    43    32    19     7    -7   -19   -32   -43   -53   -62   -69   -75   -78   -79    68    67    64    60    53    46    37    27    17     6    -6   -17   -27   -37   -46   -53   -60   -64   -67   -68    55    54    52    48    43    37    30    22    13     5    -5   -13   -22   -30   -37   -43   -48   -52   -54   -55    40    40    38    35    32    27    22    16    10     3    -3   -10   -16   -22   -27   -32   -35   -38   -40   -40    25    24    23    22    19    17    13    10     6     2    -2    -6   -10   -13   -17   -19   -22   -23   -24   -25     8     8     8     7     7     6     5     3     2     1    -1    -2    -3    -5    -6    -7    -7    -8    -8    -8    -8    -8    -8    -7    -7    -6    -5    -3    -2    -1     1     2     3     5     6     7     7     8     8     8   -25   -24   -23   -22   -19   -17   -13   -10    -6    -2     2     6    10    13    17    19    22    23    24    25   -40   -40   -38   -35   -32   -27   -22   -16   -10    -3     3    10    16    22    27    32    35    38    40    40   -55   -54   -52   -48   -43   -37   -30   -22   -13    -5     5    13    22    30    37    43    48    52    54    55   -68   -67   -64   -60   -53   -46   -37   -27   -17    -6     6    17    27    37    46    53    60    64    67    68   -79   -78   -75   -69   -62   -53   -43   -32   -19    -7     7    19    32    43    53    62    69    75    78    79   -88   -87   -83   -77   -69   -60   -48   -35   -22    -7     7    22    35    48    60    69    77    83    87    88   -95   -93   -89   -83   -75   -64   -52   -38   -23    -8     8    23    38    52    64    75    83    89    93    95   -99   -97   -93   -87   -78   -67   -54   -40   -24    -8     8    24    40    54    67    78    87    93    97    99  -100   -99   -95   -88   -79   -68   -55   -40   -25    -8     8    25    40    55    68    79    88    95    99   100
