# vtk DataFile Version 2.0
Volume example
ASCII
DATASET STRUCTURED_POINTS
DIMENSIONS 34 34 1
ASPECT_RATIO 1 1 1
ORIGIN 0 0 0
POINT_DATA 1156
SCALARS volume_scalars char 1
LOOKUP_TABLE default
100   100    98    96    93    89    84    79    72    65    58    50    42    33    24    14     5    -5   -14   -24   -33   -42   -50   -58   -65   -72   -79   -84   -89   -93   -96   -98  -100  -100   100    99    98    96    92    88    84    78    72    65    58    50    41    33    23    14     5    -5   -14   -23   -33   -41   -50   -58   -65   -72   -78   -84   -88   -92   -96   -98   -99  -100    98    98    96    94    91    87    83    77    71    64    57    49    41    32    23    14     5    -5   -14   -23   -32   -41   -49   -57   -64   -71   -77   -83   -87   -91   -94   -96   -98   -98    96    96    94    92    89    85    81    75    69    63    56    48    40    31    23    14     5    -5   -14   -23   -31   -40   -48   -56   -63   -69   -75   -81   -85   -89   -92   -94   -96   -96    93    92    91    89    86    83    78    73    67    61    54    46    39    30    22    13     4    -4   -13   -22   -30   -39   -46   -54   -61   -67   -73   -78   -83   -86   -89   -91   -92   -93    89    88    87    85    83    79    75    70    64    58    52    44    37    29    21    13     4    -4   -13   -21   -29   -37   -44   -52   -58   -64   -70   -75   -79   -83   -85   -87   -88   -89    84    84    83    81    78    75    71    66    61    55    49    42    35    28    20    12     4    -4   -12   -20   -28   -35   -42   -49   -55   -61   -66   -71   -75   -78   -81   -83   -84   -84    79    78    77    75    73    70    66    62    57    51    46    39    33    26    19    11     4    -4   -11   -19   -26   -33   -39   -46   -51   -57   -62   -66   -70   -73   -75   -77   -78   -79    72    72    71    69    67    64    61    57    52    47    42    36    30    24    17    10     3    -3   -10   -17   -24   -30   -36   -42   -47   -52   -57   -61   -64   -67   -69   -71   -72   -72    65    65    64    63    61    58    55    51    47    43    38    33    27    21    15     9     3    -3    -9   -15   -21   -27   -33   -38   -43   -47   -51   -55   -58   -61   -63   -64   -65   -65    58    58    57    56    54    52    49    46    42    38    34    29    24    19    14     8     3    -3    -8   -14   -19   -24   -29   -34   -38   -42   -46   -49   -52   -54   -56   -57   -58   -58    50    50    49    48    46    44    42    39    36    33    29    25    21    16    12     7     2    -2    -7   -12   -16   -21   -25   -29   -33   -36   -39   -42   -44   -46   -48   -49   -50   -50    42    41    41    40    39    37    35    33    30    27    24    21    17    14    10     6     2    -2    -6   -10   -14   -17   -21   -24   -27   -30   -33   -35   -37   -39   -40   -41   -41   -42    33    33    32    31    30    29    28    26    24    21    19    16    14    11     8     5     2    -2    -5    -8   -11   -14   -16   -19   -21   -24   -26   -28   -29   -30   -31   -32   -33   -33    24    23    23    23    22    21    20    19    17    15    14    12    10     8     6     3     1    -1    -3    -6    -8   -10   -12   -14   -15   -17   -19   -20   -21   -22   -23   -23   -23   -24    14    14    14    14    13    13    12    11    10     9     8     7     6     5     3     2     1    -1    -2    -3    -5    -6    -7    -8    -9   -10   -11   -12   -13   -13   -14   -14   -14   -14     5     5     5     5     4     4     4     4     3     3     3     2     2     2     1     1     0    -0    -1    -1    -2    -2    -2    -3    -3    -3    -4    -4    -4    -4    -5    -5    -5    -5    -5    -5    -5    -5    -4    -4    -4    -4    -3    -3    -3    -2    -2    -2    -1    -1    -0     0     1     1     2     2     2     3     3     3     4     4     4     4     5     5     5     5   -14   -14   -14   -14   -13   -13   -12   -11   -10    -9    -8    -7    -6    -5    -3    -2    -1     1     2     3     5     6     7     8     9    10    11    12    13    13    14    14    14    14   -24   -23   -23   -23   -22   -21   -20   -19   -17   -15   -14   -12   -10    -8    -6    -3    -1     1     3     6     8    10    12    14    15    17    19    20    21    22    23    23    23    24   -33   -33   -32   -31   -30   -29   -28   -26   -24   -21   -19   -16   -14   -11    -8    -5    -2     2     5     8    11    14    16    19    21    24    26    28    29    30    31    32    33    33   -42   -41   -41   -40   -39   -37   -35   -33   -30   -27   -24   -21   -17   -14   -10    -6    -2     2     6    10    14    17    21    24    27    30    33    35    37    39    40    41    41    42   -50   -50   -49   -48   -46   -44   -42   -39   -36   -33   -29   -25   -21   -16   -12    -7    -2     2     7    12    16    21    25    29    33    36    39    42    44    46    48    49    50    50   -58   -58   -57   -56   -54   -52   -49   -46   -42   -38   -34   -29   -24   -19   -14    -8    -3     3     8    14    19    24    29    34    38    42    46    49    52    54    56    57    58    58   -65   -65   -64   -63   -61   -58   -55   -51   -47   -43   -38   -33   -27   -21   -15    -9    -3     3     9    15    21    27    33    38    43    47    51    55    58    61    63    64    65    65   -72   -72   -71   -69   -67   -64   -61   -57   -52   -47   -42   -36   -30   -24   -17   -10    -3     3    10    17    24    30    36    42    47    52    57    61    64    67    69    71    72    72   -79   -78   -77   -75   -73   -70   -66   -62   -57   -51   -46   -39   -33   -26   -19   -11    -4     4    11    19    26    33    39    46    51    57    62    66    70    73    75    77    78    79   -84   -84   -83   -81   -78   -75   -71   -66   -61   -55   -49   -42   -35   -28   -20   -12    -4     4    12    20    28    35    42    49    55    61    66    71    75    78    81    83    84    84   -89   -88   -87   -85   -83   -79   -75   -70   -64   -58   -52   -44   -37   -29   -21   -13    -4     4    13    21    29    37    44    52    58    64    70    75    79    83    85    87    88    89   -93   -92   -91   -89   -86   -83   -78   -73   -67   -61   -54   -46   -39   -30   -22   -13    -4     4    13    22    30    39    46    54    61    67    73    78    83    86    89    91    92    93   -96   -96   -94   -92   -89   -85   -81   -75   -69   -63   -56   -48   -40   -31   -23   -14    -5     5    14    23    31    40    48    56    63    69    75    81    85    89    92    94    96    96   -98   -98   -96   -94   -91   -87   -83   -77   -71   -64   -57   -49   -41   -32   -23   -14    -5     5    14    23    32    41    49    57    64    71    77    83    87    91    94    96    98    98  -100   -99   -98   -96   -92   -88   -84   -78   -72   -65   -58   -50   -41   -33   -23   -14    -5     5    14    23    33    41    50    58    65    72    78    84    88    92    96    98    99   100  -100  -100   -98   -96   -93   -89   -84   -79   -72   -65   -58   -50   -42   -33   -24   -14    -5     5    14    24    33    42    50    58    65    72    79    84    89    93    96    98   100   100
