# vtk DataFile Version 2.0
Volume example
ASCII
DATASET STRUCTURED_POINTS
DIMENSIONS 39 39 1
ASPECT_RATIO 1 1 1
ORIGIN 0 0 0
POINT_DATA 1521
SCALARS volume_scalars char 1
LOOKUP_TABLE default
100   100    99    97    95    92    88    84    79    74    68    61    55    48    40    32    25    16     8     0    -8   -16   -25   -32   -40   -48   -55   -61   -68   -74   -79   -84   -88   -92   -95   -97   -99  -100  -100   100    99    98    97    94    91    88    83    79    73    67    61    55    47    40    32    24    16     8     0    -8   -16   -24   -32   -40   -47   -55   -61   -67   -73   -79   -83   -88   -91   -94   -97   -98   -99  -100    99    98    97    96    93    90    87    83    78    73    67    61    54    47    40    32    24    16     8     0    -8   -16   -24   -32   -40   -47   -54   -61   -67   -73   -78   -83   -87   -90   -93   -96   -97   -98   -99    97    97    96    94    92    89    85    81    76    71    66    60    53    46    39    31    24    16     8     0    -8   -16   -24   -31   -39   -46   -53   -60   -66   -71   -76   -81   -85   -89   -92   -94   -96   -97   -97    95    94    93    92    89    87    83    79    75    70    64    58    52    45    38    31    23    16     8     0    -8   -16   -23   -31   -38   -45   -52   -58   -64   -70   -75   -79   -83   -87   -89   -92   -93   -94   -95    92    91    90    89    87    84    81    77    72    67    62    56    50    44    37    30    22    15     8     0    -8   -15   -22   -30   -37   -44   -50   -56   -62   -67   -72   -77   -81   -84   -87   -89   -90   -91   -92    88    88    87    85    83    81    77    74    69    65    60    54    48    42    35    29    22    14     7     0    -7   -14   -22   -29   -35   -42   -48   -54   -60   -65   -69   -74   -77   -81   -83   -85   -87   -88   -88    84    83    83    81    79    77    74    70    66    62    57    51    46    40    34    27    21    14     7     0    -7   -14   -21   -27   -34   -40   -46   -51   -57   -62   -66   -70   -74   -77   -79   -81   -83   -83   -84    79    79    78    76    75    72    69    66    62    58    53    48    43    38    32    26    19    13     7     0    -7   -13   -19   -26   -32   -38   -43   -48   -53   -58   -62   -66   -69   -72   -75   -76   -78   -79   -79    74    73    73    71    70    67    65    62    58    54    50    45    40    35    30    24    18    12     6     0    -6   -12   -18   -24   -30   -35   -40   -45   -50   -54   -58   -62   -65   -67   -70   -71   -73   -73   -74    68    67    67    66    64    62    60    57    53    50    46    42    37    32    27    22    17    11     6     0    -6   -11   -17   -22   -27   -32   -37   -42   -46   -50   -53   -57   -60   -62   -64   -66   -67   -67   -68    61    61    61    60    58    56    54    51    48    45    42    38    34    29    25    20    15    10     5     0    -5   -10   -15   -20   -25   -29   -34   -38   -42   -45   -48   -51   -54   -56   -58   -60   -61   -61   -61    55    55    54    53    52    50    48    46    43    40    37    34    30    26    22    18    13     9     5     0    -5    -9   -13   -18   -22   -26   -30   -34   -37   -40   -43   -46   -48   -50   -52   -53   -54   -55   -55    48    47    47    46    45    44    42    40    38    35    32    29    26    23    19    15    12     8     4     0    -4    -8   -12   -15   -19   -23   -26   -29   -32   -35   -38   -40   -42   -44   -45   -46   -47   -47   -48    40    40    40    39    38    37    35    34    32    30    27    25    22    19    16    13    10     7     3     0    -3    -7   -10   -13   -16   -19   -22   -25   -27   -30   -32   -34   -35   -37   -38   -39   -40   -40   -40    32    32    32    31    31    30    29    27    26    24    22    20    18    15    13    11     8     5     3     0    -3    -5    -8   -11   -13   -15   -18   -20   -22   -24   -26   -27   -29   -30   -31   -31   -32   -32   -32    25    24    24    24    23    22    22    21    19    18    17    15    13    12    10     8     6     4     2     0    -2    -4    -6    -8   -10   -12   -13   -15   -17   -18   -19   -21   -22   -22   -23   -24   -24   -24   -25    16    16    16    16    16    15    14    14    13    12    11    10     9     8     7     5     4     3     1     0    -1    -3    -4    -5    -7    -8    -9   -10   -11   -12   -13   -14   -14   -15   -16   -16   -16   -16   -16     8     8     8     8     8     8     7     7     7     6     6     5     5     4     3     3     2     1     1     0    -1    -1    -2    -3    -3    -4    -5    -5    -6    -6    -7    -7    -7    -8    -8    -8    -8    -8    -8     0     0     0     0     0     0     0     0     0     0     0     0     0     0     0     0     0     0     0     0     0     0     0     0     0     0     0     0     0     0     0     0     0     0     0     0     0     0     0    -8    -8    -8    -8    -8    -8    -7    -7    -7    -6    -6    -5    -5    -4    -3    -3    -2    -1    -1     0     1     1     2     3     3     4     5     5     6     6     7     7     7     8     8     8     8     8     8   -16   -16   -16   -16   -16   -15   -14   -14   -13   -12   -11   -10    -9    -8    -7    -5    -4    -3    -1     0     1     3     4     5     7     8     9    10    11    12    13    14    14    15    16    16    16    16    16   -25   -24   -24   -24   -23   -22   -22   -21   -19   -18   -17   -15   -13   -12   -10    -8    -6    -4    -2     0     2     4     6     8    10    12    13    15    17    18    19    21    22    22    23    24    24    24    25   -32   -32   -32   -31   -31   -30   -29   -27   -26   -24   -22   -20   -18   -15   -13   -11    -8    -5    -3    -0     3     5     8    11    13    15    18    20    22    24    26    27    29    30    31    31    32    32    32   -40   -40   -40   -39   -38   -37   -35   -34   -32   -30   -27   -25   -22   -19   -16   -13   -10    -7    -3    -0     3     7    10    13    16    19    22    25    27    30    32    34    35    37    38    39    40    40    40   -48   -47   -47   -46   -45   -44   -42   -40   -38   -35   -32   -29   -26   -23   -19   -15   -12    -8    -4    -0     4     8    12    15    19    23    26    29    32    35    38    40    42    44    45    46    47    47    48   -55   -55   -54   -53   -52   -50   -48   -46   -43   -40   -37   -34   -30   -26   -22   -18   -13    -9    -5    -0     5     9    13    18    22    26    30    34    37    40    43    46    48    50    52    53    54    55    55   -61   -61   -61   -60   -58   -56   -54   -51   -48   -45   -42   -38   -34   -29   -25   -20   -15   -10    -5    -0     5    10    15    20    25    29    34    38    42    45    48    51    54    56    58    60    61    61    61   -68   -67   -67   -66   -64   -62   -60   -57   -53   -50   -46   -42   -37   -32   -27   -22   -17   -11    -6    -0     6    11    17    22    27    32    37    42    46    50    53    57    60    62    64    66    67    67    68   -74   -73   -73   -71   -70   -67   -65   -62   -58   -54   -50   -45   -40   -35   -30   -24   -18   -12    -6    -0     6    12    18    24    30    35    40    45    50    54    58    62    65    67    70    71    73    73    74   -79   -79   -78   -76   -75   -72   -69   -66   -62   -58   -53   -48   -43   -38   -32   -26   -19   -13    -7    -0     7    13    19    26    32    38    43    48    53    58    62    66    69    72    75    76    78    79    79   -84   -83   -83   -81   -79   -77   -74   -70   -66   -62   -57   -51   -46   -40   -34   -27   -21   -14    -7    -0     7    14    21    27    34    40    46    51    57    62    66    70    74    77    79    81    83    83    84   -88   -88   -87   -85   -83   -81   -77   -74   -69   -65   -60   -54   -48   -42   -35   -29   -22   -14    -7    -0     7    14    22    29    35    42    48    54    60    65    69    74    77    81    83    85    87    88    88   -92   -91   -90   -89   -87   -84   -81   -77   -72   -67   -62   -56   -50   -44   -37   -30   -22   -15    -8    -0     8    15    22    30    37    44    50    56    62    67    72    77    81    84    87    89    90    91    92   -95   -94   -93   -92   -89   -87   -83   -79   -75   -70   -64   -58   -52   -45   -38   -31   -23   -16    -8    -0     8    16    23    31    38    45    52    58    64    70    75    79    83    87    89    92    93    94    95   -97   -97   -96   -94   -92   -89   -85   -81   -76   -71   -66   -60   -53   -46   -39   -31   -24   -16    -8    -0     8    16    24    31    39    46    53    60    66    71    76    81    85    89    92    94    96    97    97   -99   -98   -97   -96   -93   -90   -87   -83   -78   -73   -67   -61   -54   -47   -40   -32   -24   -16    -8    -0     8    16    24    32    40    47    54    61    67    73    78    83    87    90    93    96    97    98    99  -100   -99   -98   -97   -94   -91   -88   -83   -79   -73   -67   -61   -55   -47   -40   -32   -24   -16    -8    -0     8    16    24    32    40    47    55    61    67    73    79    83    88    91    94    97    98    99   100  -100  -100   -99   -97   -95   -92   -88   -84   -79   -74   -68   -61   -55   -48   -40   -32   -25   -16    -8    -0     8    16    25    32    40    48    55    61    68    74    79    84    88    92    95    97    99   100   100
