# vtk DataFile Version 2.0
Volume example
ASCII
DATASET STRUCTURED_POINTS
DIMENSIONS 7 7 1
ASPECT_RATIO 1 1 1
ORIGIN 0 0 0
POINT_DATA 49
SCALARS volume_scalars char 1
LOOKUP_TABLE default
100    87    50     0   -50   -87  -100    87    75    43     0   -43   -75   -87    50    43    25     0   -25   -43   -50     0     0     0    -0    -0    -0    -0   -50   -43   -25    -0    25    43    50   -87   -75   -43    -0    43    75    87  -100   -87   -50    -0    50    87   100
