# vtk DataFile Version 2.0
Volume example
ASCII
DATASET STRUCTURED_POINTS
DIMENSIONS 22 22 1
ASPECT_RATIO 1 1 1
ORIGIN 0 0 0
POINT_DATA 484
SCALARS volume_scalars char 1
LOOKUP_TABLE default
100    99    96    90    83    73    62    50    37    22     7    -7   -22   -37   -50   -62   -73   -83   -90   -96   -99  -100    99    98    94    89    82    72    62    49    36    22     7    -7   -22   -36   -49   -62   -72   -82   -89   -94   -98   -99    96    94    91    86    79    70    60    48    35    21     7    -7   -21   -35   -48   -60   -70   -79   -86   -91   -94   -96    90    89    86    81    74    66    56    45    33    20     7    -7   -20   -33   -45   -56   -66   -74   -81   -86   -89   -90    83    82    79    74    68    61    52    41    30    18     6    -6   -18   -30   -41   -52   -61   -68   -74   -79   -82   -83    73    72    70    66    61    54    46    37    27    16     5    -5   -16   -27   -37   -46   -54   -61   -66   -70   -72   -73    62    62    60    56    52    46    39    31    23    14     5    -5   -14   -23   -31   -39   -46   -52   -56   -60   -62   -62    50    49    48    45    41    37    31    25    18    11     4    -4   -11   -18   -25   -31   -37   -41   -45   -48   -49   -50    37    36    35    33    30    27    23    18    13     8     3    -3    -8   -13   -18   -23   -27   -30   -33   -35   -36   -37    22    22    21    20    18    16    14    11     8     5     2    -2    -5    -8   -11   -14   -16   -18   -20   -21   -22   -22     7     7     7     7     6     5     5     4     3     2     1    -1    -2    -3    -4    -5    -5    -6    -7    -7    -7    -7    -7    -7    -7    -7    -6    -5    -5    -4    -3    -2    -1     1     2     3     4     5     5     6     7     7     7     7   -22   -22   -21   -20   -18   -16   -14   -11    -8    -5    -2     2     5     8    11    14    16    18    20    21    22    22   -37   -36   -35   -33   -30   -27   -23   -18   -13    -8    -3     3     8    13    18    23    27    30    33    35    36    37   -50   -49   -48   -45   -41   -37   -31   -25   -18   -11    -4     4    11    18    25    31    37    41    45    48    49    50   -62   -62   -60   -56   -52   -46   -39   -31   -23   -14    -5     5    14    23    31    39    46    52    56    60    62    62   -73   -72   -70   -66   -61   -54   -46   -37   -27   -16    -5     5    16    27    37    46    54    61    66    70    72    73   -83   -82   -79   -74   -68   -61   -52   -41   -30   -18    -6     6    18    30    41    52    61    68    74    79    82    83   -90   -89   -86   -81   -74   -66   -56   -45   -33   -20    -7     7    20    33    45    56    66    74    81    86    89    90   -96   -94   -91   -86   -79   -70   -60   -48   -35   -21    -7     7    21    35    48    60    70    79    86    91    94    96   -99   -98   -94   -89   -82   -72   -62   -49   -36   -22    -7     7    22    36    49    62    72    82    89    94    98    99  -100   -99   -96   -90   -83   -73   -62   -50   -37   -22    -7     7    22    37    50    62    73    83    90    96    99   100
