# vtk DataFile Version 2.0
Volume example
ASCII
DATASET STRUCTURED_POINTS
DIMENSIONS 12 12 1
ASPECT_RATIO 1 1 1
ORIGIN 0 0 0
POINT_DATA 144
SCALARS volume_scalars char 1
LOOKUP_TABLE default
100    96    84    65    42    14   -14   -42   -65   -84   -96  -100    96    92    81    63    40    14   -14   -40   -63   -81   -92   -96    84    81    71    55    35    12   -12   -35   -55   -71   -81   -84    65    63    55    43    27     9    -9   -27   -43   -55   -63   -65    42    40    35    27    17     6    -6   -17   -27   -35   -40   -42    14    14    12     9     6     2    -2    -6    -9   -12   -14   -14   -14   -14   -12    -9    -6    -2     2     6     9    12    14    14   -42   -40   -35   -27   -17    -6     6    17    27    35    40    42   -65   -63   -55   -43   -27    -9     9    27    43    55    63    65   -84   -81   -71   -55   -35   -12    12    35    55    71    81    84   -96   -92   -81   -63   -40   -14    14    40    63    81    92    96  -100   -96   -84   -65   -42   -14    14    42    65    84    96   100
