# vtk DataFile Version 2.0
Volume example
ASCII
DATASET STRUCTURED_POINTS
DIMENSIONS 48 48 1
ASPECT_RATIO 1 1 1
ORIGIN 0 0 0
POINT_DATA 2304
SCALARS volume_scalars char 1
LOOKUP_TABLE default
100   100    99    98    96    94    92    89    86    82    78    74    70    65    59    54    48    42    36    30    23    17    10     3    -3   -10   -17   -23   -30   -36   -42   -48   -54   -59   -65   -70   -74   -78   -82   -86   -89   -92   -94   -96   -98   -99  -100  -100   100   100    99    98    96    94    92    89    86    82    78    74    69    64    59    54    48    42    36    30    23    17    10     3    -3   -10   -17   -23   -30   -36   -42   -48   -54   -59   -64   -69   -74   -78   -82   -86   -89   -92   -94   -96   -98   -99  -100  -100    99    99    98    97    96    94    91    88    85    82    78    74    69    64    59    53    48    42    36    29    23    16    10     3    -3   -10   -16   -23   -29   -36   -42   -48   -53   -59   -64   -69   -74   -78   -82   -85   -88   -91   -94   -96   -97   -98   -99   -99    98    98    97    96    95    93    90    87    84    81    77    73    68    63    58    53    47    41    35    29    23    16    10     3    -3   -10   -16   -23   -29   -35   -41   -47   -53   -58   -63   -68   -73   -77   -81   -84   -87   -90   -93   -95   -96   -97   -98   -98    96    96    96    95    93    91    89    86    83    80    76    72    67    62    57    52    46    41    35    29    22    16    10     3    -3   -10   -16   -22   -29   -35   -41   -46   -52   -57   -62   -67   -72   -76   -80   -83   -86   -89   -91   -93   -95   -96   -96   -96    94    94    94    93    91    89    87    84    81    78    74    70    66    61    56    51    45    40    34    28    22    16     9     3    -3    -9   -16   -22   -28   -34   -40   -45   -51   -56   -61   -66   -70   -74   -78   -81   -84   -87   -89   -91   -93   -94   -94   -94    92    92    91    90    89    87    85    82    79    76    72    68    64    59    55    50    44    39    33    27    21    15     9     3    -3    -9   -15   -21   -27   -33   -39   -44   -50   -55   -59   -64   -68   -72   -76   -79   -82   -85   -87   -89   -90   -91   -92   -92    89    89    88    87    86    84    82    80    77    74    70    66    62    58    53    48    43    38    32    26    21    15     9     3    -3    -9   -15   -21   -26   -32   -38   -43   -48   -53   -58   -62   -66   -70   -74   -77   -80   -82   -84   -86   -87   -88   -89   -89    86    86    85    84    83    81    79    77    74    71    68    64    60    56    51    46    41    36    31    25    20    14     9     3    -3    -9   -14   -20   -25   -31   -36   -41   -46   -51   -56   -60   -64   -68   -71   -74   -77   -79   -81   -83   -84   -85   -86   -86    82    82    82    81    80    78    76    74    71    68    65    61    57    53    49    44    40    35    30    24    19    14     8     3    -3    -8   -14   -19   -24   -30   -35   -40   -44   -49   -53   -57   -61   -65   -68   -71   -74   -76   -78   -80   -81   -82   -82   -82    78    78    78    77    76    74    72    70    68    65    62    58    55    51    47    42    38    33    28    23    18    13     8     3    -3    -8   -13   -18   -23   -28   -33   -38   -42   -47   -51   -55   -58   -62   -65   -68   -70   -72   -74   -76   -77   -78   -78   -78    74    74    74    73    72    70    68    66    64    61    58    55    52    48    44    40    36    31    27    22    17    12     7     2    -2    -7   -12   -17   -22   -27   -31   -36   -40   -44   -48   -52   -55   -58   -61   -64   -66   -68   -70   -72   -73   -74   -74   -74    70    69    69    68    67    66    64    62    60    57    55    52    48    45    41    37    33    29    25    21    16    12     7     2    -2    -7   -12   -16   -21   -25   -29   -33   -37   -41   -45   -48   -52   -55   -57   -60   -62   -64   -66   -67   -68   -69   -69   -70    65    64    64    63    62    61    59    58    56    53    51    48    45    42    38    35    31    27    23    19    15    11     6     2    -2    -6   -11   -15   -19   -23   -27   -31   -35   -38   -42   -45   -48   -51   -53   -56   -58   -59   -61   -62   -63   -64   -64   -65    59    59    59    58    57    56    55    53    51    49    47    44    41    38    35    32    29    25    21    18    14    10     6     2    -2    -6   -10   -14   -18   -21   -25   -29   -32   -35   -38   -41   -44   -47   -49   -51   -53   -55   -56   -57   -58   -59   -59   -59    54    54    53    53    52    51    50    48    46    44    42    40    37    35    32    29    26    23    19    16    12     9     5     2    -2    -5    -9   -12   -16   -19   -23   -26   -29   -32   -35   -37   -40   -42   -44   -46   -48   -50   -51   -52   -53   -53   -54   -54    48    48    48    47    46    45    44    43    41    40    38    36    33    31    29    26    23    20    17    14    11     8     5     2    -2    -5    -8   -11   -14   -17   -20   -23   -26   -29   -31   -33   -36   -38   -40   -41   -43   -44   -45   -46   -47   -48   -48   -48    42    42    42    41    41    40    39    38    36    35    33    31    29    27    25    23    20    18    15    12    10     7     4     1    -1    -4    -7   -10   -12   -15   -18   -20   -23   -25   -27   -29   -31   -33   -35   -36   -38   -39   -40   -41   -41   -42   -42   -42    36    36    36    35    35    34    33    32    31    30    28    27    25    23    21    19    17    15    13    11     8     6     4     1    -1    -4    -6    -8   -11   -13   -15   -17   -19   -21   -23   -25   -27   -28   -30   -31   -32   -33   -34   -35   -35   -36   -36   -36    30    30    29    29    29    28    27    26    25    24    23    22    21    19    18    16    14    12    11     9     7     5     3     1    -1    -3    -5    -7    -9   -11   -12   -14   -16   -18   -19   -21   -22   -23   -24   -25   -26   -27   -28   -29   -29   -29   -30   -30    23    23    23    23    22    22    21    21    20    19    18    17    16    15    14    12    11    10     8     7     5     4     2     1    -1    -2    -4    -5    -7    -8   -10   -11   -12   -14   -15   -16   -17   -18   -19   -20   -21   -21   -22   -22   -23   -23   -23   -23    17    17    16    16    16    16    15    15    14    14    13    12    12    11    10     9     8     7     6     5     4     3     2     1    -1    -2    -3    -4    -5    -6    -7    -8    -9   -10   -11   -12   -12   -13   -14   -14   -15   -15   -16   -16   -16   -16   -17   -17    10    10    10    10    10     9     9     9     9     8     8     7     7     6     6     5     5     4     4     3     2     2     1     0    -0    -1    -2    -2    -3    -4    -4    -5    -5    -6    -6    -7    -7    -8    -8    -9    -9    -9    -9   -10   -10   -10   -10   -10     3     3     3     3     3     3     3     3     3     3     3     2     2     2     2     2     2     1     1     1     1     1     0     0    -0    -0    -1    -1    -1    -1    -1    -2    -2    -2    -2    -2    -2    -3    -3    -3    -3    -3    -3    -3    -3    -3    -3    -3    -3    -3    -3    -3    -3    -3    -3    -3    -3    -3    -3    -2    -2    -2    -2    -2    -2    -1    -1    -1    -1    -1    -0    -0     0     0     1     1     1     1     1     2     2     2     2     2     2     3     3     3     3     3     3     3     3     3     3     3   -10   -10   -10   -10   -10    -9    -9    -9    -9    -8    -8    -7    -7    -6    -6    -5    -5    -4    -4    -3    -2    -2    -1    -0     0     1     2     2     3     4     4     5     5     6     6     7     7     8     8     9     9     9     9    10    10    10    10    10   -17   -17   -16   -16   -16   -16   -15   -15   -14   -14   -13   -12   -12   -11   -10    -9    -8    -7    -6    -5    -4    -3    -2    -1     1     2     3     4     5     6     7     8     9    10    11    12    12    13    14    14    15    15    16    16    16    16    17    17   -23   -23   -23   -23   -22   -22   -21   -21   -20   -19   -18   -17   -16   -15   -14   -12   -11   -10    -8    -7    -5    -4    -2    -1     1     2     4     5     7     8    10    11    12    14    15    16    17    18    19    20    21    21    22    22    23    23    23    23   -30   -30   -29   -29   -29   -28   -27   -26   -25   -24   -23   -22   -21   -19   -18   -16   -14   -12   -11    -9    -7    -5    -3    -1     1     3     5     7     9    11    12    14    16    18    19    21    22    23    24    25    26    27    28    29    29    29    30    30   -36   -36   -36   -35   -35   -34   -33   -32   -31   -30   -28   -27   -25   -23   -21   -19   -17   -15   -13   -11    -8    -6    -4    -1     1     4     6     8    11    13    15    17    19    21    23    25    27    28    30    31    32    33    34    35    35    36    36    36   -42   -42   -42   -41   -41   -40   -39   -38   -36   -35   -33   -31   -29   -27   -25   -23   -20   -18   -15   -12   -10    -7    -4    -1     1     4     7    10    12    15    18    20    23    25    27    29    31    33    35    36    38    39    40    41    41    42    42    42   -48   -48   -48   -47   -46   -45   -44   -43   -41   -40   -38   -36   -33   -31   -29   -26   -23   -20   -17   -14   -11    -8    -5    -2     2     5     8    11    14    17    20    23    26    29    31    33    36    38    40    41    43    44    45    46    47    48    48    48   -54   -54   -53   -53   -52   -51   -50   -48   -46   -44   -42   -40   -37   -35   -32   -29   -26   -23   -19   -16   -12    -9    -5    -2     2     5     9    12    16    19    23    26    29    32    35    37    40    42    44    46    48    50    51    52    53    53    54    54   -59   -59   -59   -58   -57   -56   -55   -53   -51   -49   -47   -44   -41   -38   -35   -32   -29   -25   -21   -18   -14   -10    -6    -2     2     6    10    14    18    21    25    29    32    35    38    41    44    47    49    51    53    55    56    57    58    59    59    59   -65   -64   -64   -63   -62   -61   -59   -58   -56   -53   -51   -48   -45   -42   -38   -35   -31   -27   -23   -19   -15   -11    -6    -2     2     6    11    15    19    23    27    31    35    38    42    45    48    51    53    56    58    59    61    62    63    64    64    65   -70   -69   -69   -68   -67   -66   -64   -62   -60   -57   -55   -52   -48   -45   -41   -37   -33   -29   -25   -21   -16   -12    -7    -2     2     7    12    16    21    25    29    33    37    41    45    48    52    55    57    60    62    64    66    67    68    69    69    70   -74   -74   -74   -73   -72   -70   -68   -66   -64   -61   -58   -55   -52   -48   -44   -40   -36   -31   -27   -22   -17   -12    -7    -2     2     7    12    17    22    27    31    36    40    44    48    52    55    58    61    64    66    68    70    72    73    74    74    74   -78   -78   -78   -77   -76   -74   -72   -70   -68   -65   -62   -58   -55   -51   -47   -42   -38   -33   -28   -23   -18   -13    -8    -3     3     8    13    18    23    28    33    38    42    47    51    55    58    62    65    68    70    72    74    76    77    78    78    78   -82   -82   -82   -81   -80   -78   -76   -74   -71   -68   -65   -61   -57   -53   -49   -44   -40   -35   -30   -24   -19   -14    -8    -3     3     8    14    19    24    30    35    40    44    49    53    57    61    65    68    71    74    76    78    80    81    82    82    82   -86   -86   -85   -84   -83   -81   -79   -77   -74   -71   -68   -64   -60   -56   -51   -46   -41   -36   -31   -25   -20   -14    -9    -3     3     9    14    20    25    31    36    41    46    51    56    60    64    68    71    74    77    79    81    83    84    85    86    86   -89   -89   -88   -87   -86   -84   -82   -80   -77   -74   -70   -66   -62   -58   -53   -48   -43   -38   -32   -26   -21   -15    -9    -3     3     9    15    21    26    32    38    43    48    53    58    62    66    70    74    77    80    82    84    86    87    88    89    89   -92   -92   -91   -90   -89   -87   -85   -82   -79   -76   -72   -68   -64   -59   -55   -50   -44   -39   -33   -27   -21   -15    -9    -3     3     9    15    21    27    33    39    44    50    55    59    64    68    72    76    79    82    85    87    89    90    91    92    92   -94   -94   -94   -93   -91   -89   -87   -84   -81   -78   -74   -70   -66   -61   -56   -51   -45   -40   -34   -28   -22   -16    -9    -3     3     9    16    22    28    34    40    45    51    56    61    66    70    74    78    81    84    87    89    91    93    94    94    94   -96   -96   -96   -95   -93   -91   -89   -86   -83   -80   -76   -72   -67   -62   -57   -52   -46   -41   -35   -29   -22   -16   -10    -3     3    10    16    22    29    35    41    46    52    57    62    67    72    76    80    83    86    89    91    93    95    96    96    96   -98   -98   -97   -96   -95   -93   -90   -87   -84   -81   -77   -73   -68   -63   -58   -53   -47   -41   -35   -29   -23   -16   -10    -3     3    10    16    23    29    35    41    47    53    58    63    68    73    77    81    84    87    90    93    95    96    97    98    98   -99   -99   -98   -97   -96   -94   -91   -88   -85   -82   -78   -74   -69   -64   -59   -53   -48   -42   -36   -29   -23   -16   -10    -3     3    10    16    23    29    36    42    48    53    59    64    69    74    78    82    85    88    91    94    96    97    98    99    99  -100  -100   -99   -98   -96   -94   -92   -89   -86   -82   -78   -74   -69   -64   -59   -54   -48   -42   -36   -30   -23   -17   -10    -3     3    10    17    23    30    36    42    48    54    59    64    69    74    78    82    86    89    92    94    96    98    99   100   100  -100  -100   -99   -98   -96   -94   -92   -89   -86   -82   -78   -74   -70   -65   -59   -54   -48   -42   -36   -30   -23   -17   -10    -3     3    10    17    23    30    36    42    48    54    59    65    70    74    78    82    86    89    92    94    96    98    99   100   100
