# vtk DataFile Version 2.0
Volume example
ASCII
DATASET STRUCTURED_POINTS
DIMENSIONS 29 29 1
ASPECT_RATIO 1 1 1
ORIGIN 0 0 0
POINT_DATA 841
SCALARS volume_scalars char 1
LOOKUP_TABLE default
100    99    97    94    90    85    78    71    62    53    43    33    22    11     0   -11   -22   -33   -43   -53   -62   -71   -78   -85   -90   -94   -97   -99  -100    99    99    97    94    90    84    78    70    62    53    43    33    22    11     0   -11   -22   -33   -43   -53   -62   -70   -78   -84   -90   -94   -97   -99   -99    97    97    95    92    88    83    76    69    61    52    42    32    22    11     0   -11   -22   -32   -42   -52   -61   -69   -76   -83   -88   -92   -95   -97   -97    94    94    92    89    85    80    74    67    59    50    41    31    21    11     0   -11   -21   -31   -41   -50   -59   -67   -74   -80   -85   -89   -92   -94   -94    90    90    88    85    81    76    70    64    56    48    39    30    20    10     0   -10   -20   -30   -39   -48   -56   -64   -70   -76   -81   -85   -88   -90   -90    85    84    83    80    76    72    66    60    53    45    37    28    19     9     0    -9   -19   -28   -37   -45   -53   -60   -66   -72   -76   -80   -83   -84   -85    78    78    76    74    70    66    61    55    49    42    34    26    17     9     0    -9   -17   -26   -34   -42   -49   -55   -61   -66   -70   -74   -76   -78   -78    71    70    69    67    64    60    55    50    44    38    31    23    16     8     0    -8   -16   -23   -31   -38   -44   -50   -55   -60   -64   -67   -69   -70   -71    62    62    61    59    56    53    49    44    39    33    27    21    14     7     0    -7   -14   -21   -27   -33   -39   -44   -49   -53   -56   -59   -61   -62   -62    53    53    52    50    48    45    42    38    33    28    23    18    12     6     0    -6   -12   -18   -23   -28   -33   -38   -42   -45   -48   -50   -52   -53   -53    43    43    42    41    39    37    34    31    27    23    19    14    10     5     0    -5   -10   -14   -19   -23   -27   -31   -34   -37   -39   -41   -42   -43   -43    33    33    32    31    30    28    26    23    21    18    14    11     7     4     0    -4    -7   -11   -14   -18   -21   -23   -26   -28   -30   -31   -32   -33   -33    22    22    22    21    20    19    17    16    14    12    10     7     5     2     0    -2    -5    -7   -10   -12   -14   -16   -17   -19   -20   -21   -22   -22   -22    11    11    11    11    10     9     9     8     7     6     5     4     2     1    -0    -1    -2    -4    -5    -6    -7    -8    -9    -9   -10   -11   -11   -11   -11     0     0     0     0     0    -0     0     0     0     0    -0     0    -0    -0    -0    -0    -0    -0    -0    -0    -0    -0    -0    -0    -0    -0    -0    -0    -0   -11   -11   -11   -11   -10    -9    -9    -8    -7    -6    -5    -4    -2    -1    -0     1     2     4     5     6     7     8     9     9    10    11    11    11    11   -22   -22   -22   -21   -20   -19   -17   -16   -14   -12   -10    -7    -5    -2    -0     2     5     7    10    12    14    16    17    19    20    21    22    22    22   -33   -33   -32   -31   -30   -28   -26   -23   -21   -18   -14   -11    -7    -4    -0     4     7    11    14    18    21    23    26    28    30    31    32    33    33   -43   -43   -42   -41   -39   -37   -34   -31   -27   -23   -19   -14   -10    -5    -0     5    10    14    19    23    27    31    34    37    39    41    42    43    43   -53   -53   -52   -50   -48   -45   -42   -38   -33   -28   -23   -18   -12    -6    -0     6    12    18    23    28    33    38    42    45    48    50    52    53    53   -62   -62   -61   -59   -56   -53   -49   -44   -39   -33   -27   -21   -14    -7    -0     7    14    21    27    33    39    44    49    53    56    59    61    62    62   -71   -70   -69   -67   -64   -60   -55   -50   -44   -38   -31   -23   -16    -8    -0     8    16    23    31    38    44    50    55    60    64    67    69    70    71   -78   -78   -76   -74   -70   -66   -61   -55   -49   -42   -34   -26   -17    -9    -0     9    17    26    34    42    49    55    61    66    70    74    76    78    78   -85   -84   -83   -80   -76   -72   -66   -60   -53   -45   -37   -28   -19    -9    -0     9    19    28    37    45    53    60    66    72    76    80    83    84    85   -90   -90   -88   -85   -81   -76   -70   -64   -56   -48   -39   -30   -20   -10    -0    10    20    30    39    48    56    64    70    76    81    85    88    90    90   -94   -94   -92   -89   -85   -80   -74   -67   -59   -50   -41   -31   -21   -11    -0    11    21    31    41    50    59    67    74    80    85    89    92    94    94   -97   -97   -95   -92   -88   -83   -76   -69   -61   -52   -42   -32   -22   -11    -0    11    22    32    42    52    61    69    76    83    88    92    95    97    97   -99   -99   -97   -94   -90   -84   -78   -70   -62   -53   -43   -33   -22   -11    -0    11    22    33    43    53    62    70    78    84    90    94    97    99    99  -100   -99   -97   -94   -90   -85   -78   -71   -62   -53   -43   -33   -22   -11    -0    11    22    33    43    53    62    71    78    85    90    94    97    99   100
