# vtk DataFile Version 2.0
Volume example
ASCII
DATASET STRUCTURED_POINTS
DIMENSIONS 21 21 1
ASPECT_RATIO 1 1 1
ORIGIN 0 0 0
POINT_DATA 441
SCALARS volume_scalars char 1
LOOKUP_TABLE default
100    99    95    89    81    71    59    45    31    16    -0   -16   -31   -45   -59   -71   -81   -89   -95   -99  -100    99    98    94    88    80    70    58    45    31    15    -0   -15   -31   -45   -58   -70   -80   -88   -94   -98   -99    95    94    90    85    77    67    56    43    29    15    -0   -15   -29   -43   -56   -67   -77   -85   -90   -94   -95    89    88    85    79    72    63    52    40    28    14    -0   -14   -28   -40   -52   -63   -72   -79   -85   -88   -89    81    80    77    72    65    57    48    37    25    13    -0   -13   -25   -37   -48   -57   -65   -72   -77   -80   -81    71    70    67    63    57    50    42    32    22    11    -0   -11   -22   -32   -42   -50   -57   -63   -67   -70   -71    59    58    56    52    48    42    35    27    18     9    -0    -9   -18   -27   -35   -42   -48   -52   -56   -58   -59    45    45    43    40    37    32    27    21    14     7    -0    -7   -14   -21   -27   -32   -37   -40   -43   -45   -45    31    31    29    28    25    22    18    14    10     5    -0    -5   -10   -14   -18   -22   -25   -28   -29   -31   -31    16    15    15    14    13    11     9     7     5     2    -0    -2    -5    -7    -9   -11   -13   -14   -15   -15   -16    -0    -0    -0    -0    -0    -0    -0    -0    -0    -0    -0     0     0     0     0     0     0     0     0     0     0   -16   -15   -15   -14   -13   -11    -9    -7    -5    -2     0     2     5     7     9    11    13    14    15    15    16   -31   -31   -29   -28   -25   -22   -18   -14   -10    -5     0     5    10    14    18    22    25    28    29    31    31   -45   -45   -43   -40   -37   -32   -27   -21   -14    -7     0     7    14    21    27    32    37    40    43    45    45   -59   -58   -56   -52   -48   -42   -35   -27   -18    -9    -0     9    18    27    35    42    48    52    56    58    59   -71   -70   -67   -63   -57   -50   -42   -32   -22   -11    -0    11    22    32    42    50    57    63    67    70    71   -81   -80   -77   -72   -65   -57   -48   -37   -25   -13    -0    13    25    37    48    57    65    72    77    80    81   -89   -88   -85   -79   -72   -63   -52   -40   -28   -14    -0    14    28    40    52    63    72    79    85    88    89   -95   -94   -90   -85   -77   -67   -56   -43   -29   -15    -0    15    29    43    56    67    77    85    90    94    95   -99   -98   -94   -88   -80   -70   -58   -45   -31   -15    -0    15    31    45    58    70    80    88    94    98    99  -100   -99   -95   -89   -81   -71   -59   -45   -31   -16    -0    16    31    45    59    71    81    89    95    99   100
