# vtk DataFile Version 2.0
Volume example
ASCII
DATASET STRUCTURED_POINTS
DIMENSIONS 14 14 1
ASPECT_RATIO 1 1 1
ORIGIN 0 0 0
POINT_DATA 196
SCALARS volume_scalars char 1
LOOKUP_TABLE default
100    97    89    75    57    35    12   -12   -35   -57   -75   -89   -97  -100    97    94    86    73    55    34    12   -12   -34   -55   -73   -86   -94   -97    89    86    78    66    50    31    11   -11   -31   -50   -66   -78   -86   -89    75    73    66    56    43    27     9    -9   -27   -43   -56   -66   -73   -75    57    55    50    43    32    20     7    -7   -20   -32   -43   -50   -55   -57    35    34    31    27    20    13     4    -4   -13   -20   -27   -31   -34   -35    12    12    11     9     7     4     1    -1    -4    -7    -9   -11   -12   -12   -12   -12   -11    -9    -7    -4    -1     1     4     7     9    11    12    12   -35   -34   -31   -27   -20   -13    -4     4    13    20    27    31    34    35   -57   -55   -50   -43   -32   -20    -7     7    20    32    43    50    55    57   -75   -73   -66   -56   -43   -27    -9     9    27    43    56    66    73    75   -89   -86   -78   -66   -50   -31   -11    11    31    50    66    78    86    89   -97   -94   -86   -73   -55   -34   -12    12    34    55    73    86    94    97  -100   -97   -89   -75   -57   -35   -12    12    35    57    75    89    97   100
