# vtk DataFile Version 2.0
Volume example
ASCII
DATASET STRUCTURED_POINTS
DIMENSIONS 40 40 1
ASPECT_RATIO 1 1 1
ORIGIN 0 0 0
POINT_DATA 1600
SCALARS volume_scalars char 1
LOOKUP_TABLE default
100   100    99    97    95    92    89    85    80    75    69    63    57    50    43    35    28    20    12     4    -4   -12   -20   -28   -35   -43   -50   -57   -63   -69   -75   -80   -85   -89   -92   -95   -97   -99  -100  -100   100    99    98    97    95    92    88    84    80    75    69    63    57    50    43    35    28    20    12     4    -4   -12   -20   -28   -35   -43   -50   -57   -63   -69   -75   -80   -84   -88   -92   -95   -97   -98   -99  -100    99    98    97    96    94    91    87    83    79    74    68    62    56    49    42    35    27    20    12     4    -4   -12   -20   -27   -35   -42   -49   -56   -62   -68   -74   -79   -83   -87   -91   -94   -96   -97   -98   -99    97    97    96    94    92    89    86    82    78    73    67    61    55    49    42    34    27    19    12     4    -4   -12   -19   -27   -34   -42   -49   -55   -61   -67   -73   -78   -82   -86   -89   -92   -94   -96   -97   -97    95    95    94    92    90    87    84    80    76    71    66    60    54    47    41    34    26    19    11     4    -4   -11   -19   -26   -34   -41   -47   -54   -60   -66   -71   -76   -80   -84   -87   -90   -92   -94   -95   -95    92    92    91    89    87    85    81    78    74    69    64    58    52    46    39    33    26    18    11     4    -4   -11   -18   -26   -33   -39   -46   -52   -58   -64   -69   -74   -78   -81   -85   -87   -89   -91   -92   -92    89    88    87    86    84    81    78    75    71    66    61    56    50    44    38    31    25    18    11     4    -4   -11   -18   -25   -31   -38   -44   -50   -56   -61   -66   -71   -75   -78   -81   -84   -86   -87   -88   -89    85    84    83    82    80    78    75    71    68    63    59    53    48    42    36    30    24    17    10     3    -3   -10   -17   -24   -30   -36   -42   -48   -53   -59   -63   -68   -71   -75   -78   -80   -82   -83   -84   -85    80    80    79    78    76    74    71    68    64    60    55    51    45    40    34    28    22    16    10     3    -3   -10   -16   -22   -28   -34   -40   -45   -51   -55   -60   -64   -68   -71   -74   -76   -78   -79   -80   -80    75    75    74    73    71    69    66    63    60    56    52    47    43    37    32    27    21    15     9     3    -3    -9   -15   -21   -27   -32   -37   -43   -47   -52   -56   -60   -63   -66   -69   -71   -73   -74   -75   -75    69    69    68    67    66    64    61    59    55    52    48    44    39    35    30    25    19    14     8     3    -3    -8   -14   -19   -25   -30   -35   -39   -44   -48   -52   -55   -59   -61   -64   -66   -67   -68   -69   -69    63    63    62    61    60    58    56    53    51    47    44    40    36    32    27    22    18    13     8     3    -3    -8   -13   -18   -22   -27   -32   -36   -40   -44   -47   -51   -53   -56   -58   -60   -61   -62   -63   -63    57    57    56    55    54    52    50    48    45    43    39    36    32    28    24    20    16    11     7     2    -2    -7   -11   -16   -20   -24   -28   -32   -36   -39   -43   -45   -48   -50   -52   -54   -55   -56   -57   -57    50    50    49    49    47    46    44    42    40    37    35    32    28    25    21    18    14    10     6     2    -2    -6   -10   -14   -18   -21   -25   -28   -32   -35   -37   -40   -42   -44   -46   -47   -49   -49   -50   -50    43    43    42    42    41    39    38    36    34    32    30    27    24    21    18    15    12     9     5     2    -2    -5    -9   -12   -15   -18   -21   -24   -27   -30   -32   -34   -36   -38   -39   -41   -42   -42   -43   -43    35    35    35    34    34    33    31    30    28    27    25    22    20    18    15    13    10     7     4     1    -1    -4    -7   -10   -13   -15   -18   -20   -22   -25   -27   -28   -30   -31   -33   -34   -34   -35   -35   -35    28    28    27    27    26    26    25    24    22    21    19    18    16    14    12    10     8     6     3     1    -1    -3    -6    -8   -10   -12   -14   -16   -18   -19   -21   -22   -24   -25   -26   -26   -27   -27   -28   -28    20    20    20    19    19    18    18    17    16    15    14    13    11    10     9     7     6     4     2     1    -1    -2    -4    -6    -7    -9   -10   -11   -13   -14   -15   -16   -17   -18   -18   -19   -19   -20   -20   -20    12    12    12    12    11    11    11    10    10     9     8     8     7     6     5     4     3     2     1     0    -0    -1    -2    -3    -4    -5    -6    -7    -8    -8    -9   -10   -10   -11   -11   -11   -12   -12   -12   -12     4     4     4     4     4     4     4     3     3     3     3     3     2     2     2     1     1     1     0     0    -0    -0    -1    -1    -1    -2    -2    -2    -3    -3    -3    -3    -3    -4    -4    -4    -4    -4    -4    -4    -4    -4    -4    -4    -4    -4    -4    -3    -3    -3    -3    -3    -2    -2    -2    -1    -1    -1    -0    -0     0     0     1     1     1     2     2     2     3     3     3     3     3     4     4     4     4     4     4     4   -12   -12   -12   -12   -11   -11   -11   -10   -10    -9    -8    -8    -7    -6    -5    -4    -3    -2    -1    -0     0     1     2     3     4     5     6     7     8     8     9    10    10    11    11    11    12    12    12    12   -20   -20   -20   -19   -19   -18   -18   -17   -16   -15   -14   -13   -11   -10    -9    -7    -6    -4    -2    -1     1     2     4     6     7     9    10    11    13    14    15    16    17    18    18    19    19    20    20    20   -28   -28   -27   -27   -26   -26   -25   -24   -22   -21   -19   -18   -16   -14   -12   -10    -8    -6    -3    -1     1     3     6     8    10    12    14    16    18    19    21    22    24    25    26    26    27    27    28    28   -35   -35   -35   -34   -34   -33   -31   -30   -28   -27   -25   -22   -20   -18   -15   -13   -10    -7    -4    -1     1     4     7    10    13    15    18    20    22    25    27    28    30    31    33    34    34    35    35    35   -43   -43   -42   -42   -41   -39   -38   -36   -34   -32   -30   -27   -24   -21   -18   -15   -12    -9    -5    -2     2     5     9    12    15    18    21    24    27    30    32    34    36    38    39    41    42    42    43    43   -50   -50   -49   -49   -47   -46   -44   -42   -40   -37   -35   -32   -28   -25   -21   -18   -14   -10    -6    -2     2     6    10    14    18    21    25    28    32    35    37    40    42    44    46    47    49    49    50    50   -57   -57   -56   -55   -54   -52   -50   -48   -45   -43   -39   -36   -32   -28   -24   -20   -16   -11    -7    -2     2     7    11    16    20    24    28    32    36    39    43    45    48    50    52    54    55    56    57    57   -63   -63   -62   -61   -60   -58   -56   -53   -51   -47   -44   -40   -36   -32   -27   -22   -18   -13    -8    -3     3     8    13    18    22    27    32    36    40    44    47    51    53    56    58    60    61    62    63    63   -69   -69   -68   -67   -66   -64   -61   -59   -55   -52   -48   -44   -39   -35   -30   -25   -19   -14    -8    -3     3     8    14    19    25    30    35    39    44    48    52    55    59    61    64    66    67    68    69    69   -75   -75   -74   -73   -71   -69   -66   -63   -60   -56   -52   -47   -43   -37   -32   -27   -21   -15    -9    -3     3     9    15    21    27    32    37    43    47    52    56    60    63    66    69    71    73    74    75    75   -80   -80   -79   -78   -76   -74   -71   -68   -64   -60   -55   -51   -45   -40   -34   -28   -22   -16   -10    -3     3    10    16    22    28    34    40    45    51    55    60    64    68    71    74    76    78    79    80    80   -85   -84   -83   -82   -80   -78   -75   -71   -68   -63   -59   -53   -48   -42   -36   -30   -24   -17   -10    -3     3    10    17    24    30    36    42    48    53    59    63    68    71    75    78    80    82    83    84    85   -89   -88   -87   -86   -84   -81   -78   -75   -71   -66   -61   -56   -50   -44   -38   -31   -25   -18   -11    -4     4    11    18    25    31    38    44    50    56    61    66    71    75    78    81    84    86    87    88    89   -92   -92   -91   -89   -87   -85   -81   -78   -74   -69   -64   -58   -52   -46   -39   -33   -26   -18   -11    -4     4    11    18    26    33    39    46    52    58    64    69    74    78    81    85    87    89    91    92    92   -95   -95   -94   -92   -90   -87   -84   -80   -76   -71   -66   -60   -54   -47   -41   -34   -26   -19   -11    -4     4    11    19    26    34    41    47    54    60    66    71    76    80    84    87    90    92    94    95    95   -97   -97   -96   -94   -92   -89   -86   -82   -78   -73   -67   -61   -55   -49   -42   -34   -27   -19   -12    -4     4    12    19    27    34    42    49    55    61    67    73    78    82    86    89    92    94    96    97    97   -99   -98   -97   -96   -94   -91   -87   -83   -79   -74   -68   -62   -56   -49   -42   -35   -27   -20   -12    -4     4    12    20    27    35    42    49    56    62    68    74    79    83    87    91    94    96    97    98    99  -100   -99   -98   -97   -95   -92   -88   -84   -80   -75   -69   -63   -57   -50   -43   -35   -28   -20   -12    -4     4    12    20    28    35    43    50    57    63    69    75    80    84    88    92    95    97    98    99   100  -100  -100   -99   -97   -95   -92   -89   -85   -80   -75   -69   -63   -57   -50   -43   -35   -28   -20   -12    -4     4    12    20    28    35    43    50    57    63    69    75    80    85    89    92    95    97    99   100   100
