# vtk DataFile Version 2.0
Volume example
ASCII
DATASET STRUCTURED_POINTS
DIMENSIONS 2 2 1
ASPECT_RATIO 1 1 1
ORIGIN 0 0 0
POINT_DATA 4
SCALARS volume_scalars char 1
LOOKUP_TABLE default
100  -100  -100   100
