# vtk DataFile Version 2.0
Volume example
ASCII
DATASET STRUCTURED_POINTS
DIMENSIONS 26 26 1
ASPECT_RATIO 1 1 1
ORIGIN 0 0 0
POINT_DATA 676
SCALARS volume_scalars char 1
LOOKUP_TABLE default
100    99    97    93    88    81    73    64    54    43    31    19     6    -6   -19   -31   -43   -54   -64   -73   -81   -88   -93   -97   -99  -100    99    98    96    92    87    80    72    63    53    42    31    19     6    -6   -19   -31   -42   -53   -63   -72   -80   -87   -92   -96   -98   -99    97    96    94    90    85    78    71    62    52    41    30    18     6    -6   -18   -30   -41   -52   -62   -71   -78   -85   -90   -94   -96   -97    93    92    90    86    81    75    68    59    50    40    29    17     6    -6   -17   -29   -40   -50   -59   -68   -75   -81   -86   -90   -92   -93    88    87    85    81    77    71    64    56    47    37    27    16     6    -6   -16   -27   -37   -47   -56   -64   -71   -77   -81   -85   -87   -88    81    80    78    75    71    65    59    52    43    34    25    15     5    -5   -15   -25   -34   -43   -52   -59   -65   -71   -75   -78   -80   -81    73    72    71    68    64    59    53    46    39    31    23    14     5    -5   -14   -23   -31   -39   -46   -53   -59   -64   -68   -71   -72   -73    64    63    62    59    56    52    46    41    34    27    20    12     4    -4   -12   -20   -27   -34   -41   -46   -52   -56   -59   -62   -63   -64    54    53    52    50    47    43    39    34    29    23    17    10     3    -3   -10   -17   -23   -29   -34   -39   -43   -47   -50   -52   -53   -54    43    42    41    40    37    34    31    27    23    18    13     8     3    -3    -8   -13   -18   -23   -27   -31   -34   -37   -40   -41   -42   -43    31    31    30    29    27    25    23    20    17    13    10     6     2    -2    -6   -10   -13   -17   -20   -23   -25   -27   -29   -30   -31   -31    19    19    18    17    16    15    14    12    10     8     6     4     1    -1    -4    -6    -8   -10   -12   -14   -15   -16   -17   -18   -19   -19     6     6     6     6     6     5     5     4     3     3     2     1     0    -0    -1    -2    -3    -3    -4    -5    -5    -6    -6    -6    -6    -6    -6    -6    -6    -6    -6    -5    -5    -4    -3    -3    -2    -1    -0     0     1     2     3     3     4     5     5     6     6     6     6     6   -19   -19   -18   -17   -16   -15   -14   -12   -10    -8    -6    -4    -1     1     4     6     8    10    12    14    15    16    17    18    19    19   -31   -31   -30   -29   -27   -25   -23   -20   -17   -13   -10    -6    -2     2     6    10    13    17    20    23    25    27    29    30    31    31   -43   -42   -41   -40   -37   -34   -31   -27   -23   -18   -13    -8    -3     3     8    13    18    23    27    31    34    37    40    41    42    43   -54   -53   -52   -50   -47   -43   -39   -34   -29   -23   -17   -10    -3     3    10    17    23    29    34    39    43    47    50    52    53    54   -64   -63   -62   -59   -56   -52   -46   -41   -34   -27   -20   -12    -4     4    12    20    27    34    41    46    52    56    59    62    63    64   -73   -72   -71   -68   -64   -59   -53   -46   -39   -31   -23   -14    -5     5    14    23    31    39    46    53    59    64    68    71    72    73   -81   -80   -78   -75   -71   -65   -59   -52   -43   -34   -25   -15    -5     5    15    25    34    43    52    59    65    71    75    78    80    81   -88   -87   -85   -81   -77   -71   -64   -56   -47   -37   -27   -16    -6     6    16    27    37    47    56    64    71    77    81    85    87    88   -93   -92   -90   -86   -81   -75   -68   -59   -50   -40   -29   -17    -6     6    17    29    40    50    59    68    75    81    86    90    92    93   -97   -96   -94   -90   -85   -78   -71   -62   -52   -41   -30   -18    -6     6    18    30    41    52    62    71    78    85    90    94    96    97   -99   -98   -96   -92   -87   -80   -72   -63   -53   -42   -31   -19    -6     6    19    31    42    53    63    72    80    87    92    96    98    99  -100   -99   -97   -93   -88   -81   -73   -64   -54   -43   -31   -19    -6     6    19    31    43    54    64    73    81    88    93    97    99   100
