# vtk DataFile Version 2.0
Volume example
ASCII
DATASET STRUCTURED_POINTS
DIMENSIONS 27 27 1
ASPECT_RATIO 1 1 1
ORIGIN 0 0 0
POINT_DATA 729
SCALARS volume_scalars char 1
LOOKUP_TABLE default
100    99    97    94    89    82    75    66    57    46    35    24    12     0   -12   -24   -35   -46   -57   -66   -75   -82   -89   -94   -97   -99  -100    99    99    96    93    88    82    74    66    56    46    35    24    12     0   -12   -24   -35   -46   -56   -66   -74   -82   -88   -93   -96   -99   -99    97    96    94    91    86    80    73    64    55    45    34    23    12     0   -12   -23   -34   -45   -55   -64   -73   -80   -86   -91   -94   -96   -97    94    93    91    87    83    77    70    62    53    43    33    22    11    -0   -11   -22   -33   -43   -53   -62   -70   -77   -83   -87   -91   -93   -94    89    88    86    83    78    73    66    59    50    41    31    21    11    -0   -11   -21   -31   -41   -50   -59   -66   -73   -78   -83   -86   -88   -89    82    82    80    77    73    68    62    55    47    38    29    20    10    -0   -10   -20   -29   -38   -47   -55   -62   -68   -73   -77   -80   -82   -82    75    74    73    70    66    62    56    50    43    35    27    18     9    -0    -9   -18   -27   -35   -43   -50   -56   -62   -66   -70   -73   -74   -75    66    66    64    62    59    55    50    44    38    31    24    16     8     0    -8   -16   -24   -31   -38   -44   -50   -55   -59   -62   -64   -66   -66    57    56    55    53    50    47    43    38    32    26    20    14     7    -0    -7   -14   -20   -26   -32   -38   -43   -47   -50   -53   -55   -56   -57    46    46    45    43    41    38    35    31    26    22    16    11     6     0    -6   -11   -16   -22   -26   -31   -35   -38   -41   -43   -45   -46   -46    35    35    34    33    31    29    27    24    20    16    13     8     4     0    -4    -8   -13   -16   -20   -24   -27   -29   -31   -33   -34   -35   -35    24    24    23    22    21    20    18    16    14    11     8     6     3     0    -3    -6    -8   -11   -14   -16   -18   -20   -21   -22   -23   -24   -24    12    12    12    11    11    10     9     8     7     6     4     3     1     0    -1    -3    -4    -6    -7    -8    -9   -10   -11   -11   -12   -12   -12    -0    -0    -0    -0    -0    -0    -0     0     0     0     0     0     0     0     0     0     0     0     0     0     0     0     0     0     0     0     0   -12   -12   -12   -11   -11   -10    -9    -8    -7    -6    -4    -3    -1     0     1     3     4     6     7     8     9    10    11    11    12    12    12   -24   -24   -23   -22   -21   -20   -18   -16   -14   -11    -8    -6    -3     0     3     6     8    11    14    16    18    20    21    22    23    24    24   -35   -35   -34   -33   -31   -29   -27   -24   -20   -16   -13    -8    -4     0     4     8    13    16    20    24    27    29    31    33    34    35    35   -46   -46   -45   -43   -41   -38   -35   -31   -26   -22   -16   -11    -6     0     6    11    16    22    26    31    35    38    41    43    45    46    46   -57   -56   -55   -53   -50   -47   -43   -38   -32   -26   -20   -14    -7     0     7    14    20    26    32    38    43    47    50    53    55    56    57   -66   -66   -64   -62   -59   -55   -50   -44   -38   -31   -24   -16    -8     0     8    16    24    31    38    44    50    55    59    62    64    66    66   -75   -74   -73   -70   -66   -62   -56   -50   -43   -35   -27   -18    -9     0     9    18    27    35    43    50    56    62    66    70    73    74    75   -82   -82   -80   -77   -73   -68   -62   -55   -47   -38   -29   -20   -10     0    10    20    29    38    47    55    62    68    73    77    80    82    82   -89   -88   -86   -83   -78   -73   -66   -59   -50   -41   -31   -21   -11     0    11    21    31    41    50    59    66    73    78    83    86    88    89   -94   -93   -91   -87   -83   -77   -70   -62   -53   -43   -33   -22   -11     0    11    22    33    43    53    62    70    77    83    87    91    93    94   -97   -96   -94   -91   -86   -80   -73   -64   -55   -45   -34   -23   -12     0    12    23    34    45    55    64    73    80    86    91    94    96    97   -99   -99   -96   -93   -88   -82   -74   -66   -56   -46   -35   -24   -12     0    12    24    35    46    56    66    74    82    88    93    96    99    99  -100   -99   -97   -94   -89   -82   -75   -66   -57   -46   -35   -24   -12     0    12    24    35    46    57    66    75    82    89    94    97    99   100
