# vtk DataFile Version 2.0
Volume example
ASCII
DATASET STRUCTURED_POINTS
DIMENSIONS 30 30 1
ASPECT_RATIO 1 1 1
ORIGIN 0 0 0
POINT_DATA 900
SCALARS volume_scalars char 1
LOOKUP_TABLE default
100    99    98    95    91    86    80    73    65    56    47    37    27    16     5    -5   -16   -27   -37   -47   -56   -65   -73   -80   -86   -91   -95   -98   -99  -100    99    99    97    94    90    85    79    72    64    56    47    37    27    16     5    -5   -16   -27   -37   -47   -56   -64   -72   -79   -85   -90   -94   -97   -99   -99    98    97    95    93    89    84    78    71    63    55    46    36    26    16     5    -5   -16   -26   -36   -46   -55   -63   -71   -78   -84   -89   -93   -95   -97   -98    95    94    93    90    86    81    75    69    61    53    44    35    25    15     5    -5   -15   -25   -35   -44   -53   -61   -69   -75   -81   -86   -90   -93   -94   -95    91    90    89    86    82    78    72    66    59    51    43    34    24    15     5    -5   -15   -24   -34   -43   -51   -59   -66   -72   -78   -82   -86   -89   -90   -91    86    85    84    81    78    73    68    62    55    48    40    32    23    14     5    -5   -14   -23   -32   -40   -48   -55   -62   -68   -73   -78   -81   -84   -85   -86    80    79    78    75    72    68    63    58    52    45    37    29    21    13     4    -4   -13   -21   -29   -37   -45   -52   -58   -63   -68   -72   -75   -78   -79   -80    73    72    71    69    66    62    58    53    47    41    34    27    19    12     4    -4   -12   -19   -27   -34   -41   -47   -53   -58   -62   -66   -69   -71   -72   -73    65    64    63    61    59    55    52    47    42    36    30    24    17    10     4    -4   -10   -17   -24   -30   -36   -42   -47   -52   -55   -59   -61   -63   -64   -65    56    56    55    53    51    48    45    41    36    31    26    21    15     9     3    -3    -9   -15   -21   -26   -31   -36   -41   -45   -48   -51   -53   -55   -56   -56    47    47    46    44    43    40    37    34    30    26    22    17    13     8     3    -3    -8   -13   -17   -22   -26   -30   -34   -37   -40   -43   -44   -46   -47   -47    37    37    36    35    34    32    29    27    24    21    17    14    10     6     2    -2    -6   -10   -14   -17   -21   -24   -27   -29   -32   -34   -35   -36   -37   -37    27    27    26    25    24    23    21    19    17    15    13    10     7     4     1    -1    -4    -7   -10   -13   -15   -17   -19   -21   -23   -24   -25   -26   -27   -27    16    16    16    15    15    14    13    12    10     9     8     6     4     3     1    -1    -3    -4    -6    -8    -9   -10   -12   -13   -14   -15   -15   -16   -16   -16     5     5     5     5     5     5     4     4     4     3     3     2     1     1     0    -0    -1    -1    -2    -3    -3    -4    -4    -4    -5    -5    -5    -5    -5    -5    -5    -5    -5    -5    -5    -5    -4    -4    -4    -3    -3    -2    -1    -1    -0     0     1     1     2     3     3     4     4     4     5     5     5     5     5     5   -16   -16   -16   -15   -15   -14   -13   -12   -10    -9    -8    -6    -4    -3    -1     1     3     4     6     8     9    10    12    13    14    15    15    16    16    16   -27   -27   -26   -25   -24   -23   -21   -19   -17   -15   -13   -10    -7    -4    -1     1     4     7    10    13    15    17    19    21    23    24    25    26    27    27   -37   -37   -36   -35   -34   -32   -29   -27   -24   -21   -17   -14   -10    -6    -2     2     6    10    14    17    21    24    27    29    32    34    35    36    37    37   -47   -47   -46   -44   -43   -40   -37   -34   -30   -26   -22   -17   -13    -8    -3     3     8    13    17    22    26    30    34    37    40    43    44    46    47    47   -56   -56   -55   -53   -51   -48   -45   -41   -36   -31   -26   -21   -15    -9    -3     3     9    15    21    26    31    36    41    45    48    51    53    55    56    56   -65   -64   -63   -61   -59   -55   -52   -47   -42   -36   -30   -24   -17   -10    -4     4    10    17    24    30    36    42    47    52    55    59    61    63    64    65   -73   -72   -71   -69   -66   -62   -58   -53   -47   -41   -34   -27   -19   -12    -4     4    12    19    27    34    41    47    53    58    62    66    69    71    72    73   -80   -79   -78   -75   -72   -68   -63   -58   -52   -45   -37   -29   -21   -13    -4     4    13    21    29    37    45    52    58    63    68    72    75    78    79    80   -86   -85   -84   -81   -78   -73   -68   -62   -55   -48   -40   -32   -23   -14    -5     5    14    23    32    40    48    55    62    68    73    78    81    84    85    86   -91   -90   -89   -86   -82   -78   -72   -66   -59   -51   -43   -34   -24   -15    -5     5    15    24    34    43    51    59    66    72    78    82    86    89    90    91   -95   -94   -93   -90   -86   -81   -75   -69   -61   -53   -44   -35   -25   -15    -5     5    15    25    35    44    53    61    69    75    81    86    90    93    94    95   -98   -97   -95   -93   -89   -84   -78   -71   -63   -55   -46   -36   -26   -16    -5     5    16    26    36    46    55    63    71    78    84    89    93    95    97    98   -99   -99   -97   -94   -90   -85   -79   -72   -64   -56   -47   -37   -27   -16    -5     5    16    27    37    47    56    64    72    79    85    90    94    97    99    99  -100   -99   -98   -95   -91   -86   -80   -73   -65   -56   -47   -37   -27   -16    -5     5    16    27    37    47    56    65    73    80    86    91    95    98    99   100
