# vtk DataFile Version 2.0
Volume example
ASCII
DATASET STRUCTURED_POINTS
DIMENSIONS 17 17 1
ASPECT_RATIO 1 1 1
ORIGIN 0 0 0
POINT_DATA 289
SCALARS volume_scalars char 1
LOOKUP_TABLE default
100    98    92    83    71    56    38    20    -0   -20   -38   -56   -71   -83   -92   -98  -100    98    96    91    82    69    54    38    19    -0   -19   -38   -54   -69   -82   -91   -96   -98    92    91    85    77    65    51    35    18    -0   -18   -35   -51   -65   -77   -85   -91   -92    83    82    77    69    59    46    32    16    -0   -16   -32   -46   -59   -69   -77   -82   -83    71    69    65    59    50    39    27    14    -0   -14   -27   -39   -50   -59   -65   -69   -71    56    54    51    46    39    31    21    11    -0   -11   -21   -31   -39   -46   -51   -54   -56    38    38    35    32    27    21    15     7    -0    -7   -15   -21   -27   -32   -35   -38   -38    20    19    18    16    14    11     7     4    -0    -4    -7   -11   -14   -16   -18   -19   -20    -0    -0    -0    -0    -0    -0    -0    -0    -0    -0    -0    -0    -0    -0    -0    -0    -0   -20   -19   -18   -16   -14   -11    -7    -4    -0     4     7    11    14    16    18    19    20   -38   -38   -35   -32   -27   -21   -15    -7    -0     7    15    21    27    32    35    38    38   -56   -54   -51   -46   -39   -31   -21   -11    -0    11    21    31    39    46    51    54    56   -71   -69   -65   -59   -50   -39   -27   -14    -0    14    27    39    50    59    65    69    71   -83   -82   -77   -69   -59   -46   -32   -16     0    16    32    46    59    69    77    82    83   -92   -91   -85   -77   -65   -51   -35   -18    -0    18    35    51    65    77    85    91    92   -98   -96   -91   -82   -69   -54   -38   -19     0    19    38    54    69    82    91    96    98  -100   -98   -92   -83   -71   -56   -38   -20    -0    20    38    56    71    83    92    98   100
