# vtk DataFile Version 2.0
Volume example
ASCII
DATASET STRUCTURED_POINTS
DIMENSIONS 23 23 1
ASPECT_RATIO 1 1 1
ORIGIN 0 0 0
POINT_DATA 529
SCALARS volume_scalars char 1
LOOKUP_TABLE default
100    99    96    91    84    76    65    54    42    28    14     0   -14   -28   -42   -54   -65   -76   -84   -91   -96   -99  -100    99    98    95    90    83    75    65    54    41    28    14     0   -14   -28   -41   -54   -65   -75   -83   -90   -95   -98   -99    96    95    92    87    81    73    63    52    40    27    14     0   -14   -27   -40   -52   -63   -73   -81   -87   -92   -95   -96    91    90    87    83    77    69    60    49    38    26    13     0   -13   -26   -38   -49   -60   -69   -77   -83   -87   -90   -91    84    83    81    77    71    64    55    45    35    24    12     0   -12   -24   -35   -45   -55   -64   -71   -77   -81   -83   -84    76    75    73    69    64    57    49    41    31    21    11     0   -11   -21   -31   -41   -49   -57   -64   -69   -73   -75   -76    65    65    63    60    55    49    43    35    27    18     9     0    -9   -18   -27   -35   -43   -49   -55   -60   -63   -65   -65    54    54    52    49    45    41    35    29    22    15     8     0    -8   -15   -22   -29   -35   -41   -45   -49   -52   -54   -54    42    41    40    38    35    31    27    22    17    12     6     0    -6   -12   -17   -22   -27   -31   -35   -38   -40   -41   -42    28    28    27    26    24    21    18    15    12     8     4    -0    -4    -8   -12   -15   -18   -21   -24   -26   -27   -28   -28    14    14    14    13    12    11     9     8     6     4     2    -0    -2    -4    -6    -8    -9   -11   -12   -13   -14   -14   -14     0     0    -0    -0    -0    -0    -0    -0    -0    -0    -0    -0    -0    -0    -0    -0    -0    -0    -0    -0    -0    -0    -0   -14   -14   -14   -13   -12   -11    -9    -8    -6    -4    -2    -0     2     4     6     8     9    11    12    13    14    14    14   -28   -28   -27   -26   -24   -21   -18   -15   -12    -8    -4    -0     4     8    12    15    18    21    24    26    27    28    28   -42   -41   -40   -38   -35   -31   -27   -22   -17   -12    -6    -0     6    12    17    22    27    31    35    38    40    41    42   -54   -54   -52   -49   -45   -41   -35   -29   -22   -15    -8    -0     8    15    22    29    35    41    45    49    52    54    54   -65   -65   -63   -60   -55   -49   -43   -35   -27   -18    -9     0     9    18    27    35    43    49    55    60    63    65    65   -76   -75   -73   -69   -64   -57   -49   -41   -31   -21   -11     0    11    21    31    41    49    57    64    69    73    75    76   -84   -83   -81   -77   -71   -64   -55   -45   -35   -24   -12    -0    12    24    35    45    55    64    71    77    81    83    84   -91   -90   -87   -83   -77   -69   -60   -49   -38   -26   -13    -0    13    26    38    49    60    69    77    83    87    90    91   -96   -95   -92   -87   -81   -73   -63   -52   -40   -27   -14    -0    14    27    40    52    63    73    81    87    92    95    96   -99   -98   -95   -90   -83   -75   -65   -54   -41   -28   -14    -0    14    28    41    54    65    75    83    90    95    98    99  -100   -99   -96   -91   -84   -76   -65   -54   -42   -28   -14    -0    14    28    42    54    65    76    84    91    96    99   100
