# vtk DataFile Version 2.0
Volume example
ASCII
DATASET STRUCTURED_POINTS
DIMENSIONS 55 55 1
ASPECT_RATIO 1 1 1
ORIGIN 0 0 0
POINT_DATA 3025
SCALARS volume_scalars char 1
LOOKUP_TABLE default
100   100    99    98    97    96    94    92    89    87    84    80    77    73    69    64    60    55    50    45    40    34    29    23    17    12     6    -0    -6   -12   -17   -23   -29   -34   -40   -45   -50   -55   -60   -64   -69   -73   -77   -80   -84   -87   -89   -92   -94   -96   -97   -98   -99  -100  -100   100   100    99    98    97    96    94    92    89    86    83    80    76    73    69    64    60    55    50    45    40    34    29    23    17    12     6    -0    -6   -12   -17   -23   -29   -34   -40   -45   -50   -55   -60   -64   -69   -73   -76   -80   -83   -86   -89   -92   -94   -96   -97   -98   -99  -100  -100    99    99    99    98    97    95    93    91    89    86    83    80    76    72    68    64    59    55    50    45    39    34    28    23    17    12     6    -0    -6   -12   -17   -23   -28   -34   -39   -45   -50   -55   -59   -64   -68   -72   -76   -80   -83   -86   -89   -91   -93   -95   -97   -98   -99   -99   -99    98    98    98    97    96    94    93    90    88    85    82    79    75    72    68    63    59    54    49    44    39    34    28    23    17    11     6    -0    -6   -11   -17   -23   -28   -34   -39   -44   -49   -54   -59   -63   -68   -72   -75   -79   -82   -85   -88   -90   -93   -94   -96   -97   -98   -98   -98    97    97    97    96    95    93    91    89    87    84    81    78    75    71    67    63    58    53    49    44    39    33    28    22    17    11     6    -0    -6   -11   -17   -22   -28   -33   -39   -44   -49   -53   -58   -63   -67   -71   -75   -78   -81   -84   -87   -89   -91   -93   -95   -96   -97   -97   -97    96    96    95    94    93    92    90    88    86    83    80    77    73    70    66    62    57    53    48    43    38    33    27    22    17    11     6    -0    -6   -11   -17   -22   -27   -33   -38   -43   -48   -53   -57   -62   -66   -70   -73   -77   -80   -83   -86   -88   -90   -92   -93   -94   -95   -96   -96    94    94    93    93    91    90    88    86    84    81    79    75    72    68    64    60    56    52    47    42    37    32    27    22    16    11     5    -0    -5   -11   -16   -22   -27   -32   -37   -42   -47   -52   -56   -60   -64   -68   -72   -75   -79   -81   -84   -86   -88   -90   -91   -93   -93   -94   -94    92    92    91    90    89    88    86    84    82    80    77    74    70    67    63    59    55    50    46    41    36    31    26    21    16    11     5    -0    -5   -11   -16   -21   -26   -31   -36   -41   -46   -50   -55   -59   -63   -67   -70   -74   -77   -80   -82   -84   -86   -88   -89   -90   -91   -92   -92    89    89    89    88    87    86    84    82    80    77    75    72    68    65    61    57    53    49    45    40    35    31    26    21    16    10     5    -0    -5   -10   -16   -21   -26   -31   -35   -40   -45   -49   -53   -57   -61   -65   -68   -72   -75   -77   -80   -82   -84   -86   -87   -88   -89   -89   -89    87    86    86    85    84    83    81    80    77    75    72    69    66    63    59    56    52    48    43    39    34    30    25    20    15    10     5    -0    -5   -10   -15   -20   -25   -30   -34   -39   -43   -48   -52   -56   -59   -63   -66   -69   -72   -75   -77   -80   -81   -83   -84   -85   -86   -86   -87    84    83    83    82    81    80    79    77    75    72    70    67    64    61    57    54    50    46    42    37    33    29    24    19    15    10     5    -0    -5   -10   -15   -19   -24   -29   -33   -37   -42   -46   -50   -54   -57   -61   -64   -67   -70   -72   -75   -77   -79   -80   -81   -82   -83   -83   -84    80    80    80    79    78    77    75    74    72    69    67    64    61    58    55    52    48    44    40    36    32    27    23    18    14     9     5    -0    -5    -9   -14   -18   -23   -27   -32   -36   -40   -44   -48   -52   -55   -58   -61   -64   -67   -69   -72   -74   -75   -77   -78   -79   -80   -80   -80    77    76    76    75    75    73    72    70    68    66    64    61    59    56    53    49    46    42    38    34    30    26    22    18    13     9     4    -0    -4    -9   -13   -18   -22   -26   -30   -34   -38   -42   -46   -49   -53   -56   -59   -61   -64   -66   -68   -70   -72   -73   -75   -75   -76   -76   -77    73    73    72    72    71    70    68    67    65    63    61    58    56    53    50    47    43    40    36    33    29    25    21    17    13     8     4    -0    -4    -8   -13   -17   -21   -25   -29   -33   -36   -40   -43   -47   -50   -53   -56   -58   -61   -63   -65   -67   -68   -70   -71   -72   -72   -73   -73    69    69    68    68    67    66    64    63    61    59    57    55    53    50    47    44    41    38    34    31    27    23    20    16    12     8     4    -0    -4    -8   -12   -16   -20   -23   -27   -31   -34   -38   -41   -44   -47   -50   -53   -55   -57   -59   -61   -63   -64   -66   -67   -68   -68   -69   -69    64    64    64    63    63    62    60    59    57    56    54    52    49    47    44    41    38    35    32    29    25    22    18    15    11     7     4     0    -4    -7   -11   -15   -18   -22   -25   -29   -32   -35   -38   -41   -44   -47   -49   -52   -54   -56   -57   -59   -60   -62   -63   -63   -64   -64   -64    60    60    59    59    58    57    56    55    53    52    50    48    46    43    41    38    36    33    30    27    24    20    17    14    10     7     3     0    -3    -7   -10   -14   -17   -20   -24   -27   -30   -33   -36   -38   -41   -43   -46   -48   -50   -52   -53   -55   -56   -57   -58   -59   -59   -60   -60    55    55    55    54    53    53    52    50    49    48    46    44    42    40    38    35    33    30    27    25    22    19    16    13    10     6     3     0    -3    -6   -10   -13   -16   -19   -22   -25   -27   -30   -33   -35   -38   -40   -42   -44   -46   -48   -49   -50   -52   -53   -53   -54   -55   -55   -55    50    50    50    49    49    48    47    46    45    43    42    40    38    36    34    32    30    27    25    22    20    17    14    12     9     6     3     0    -3    -6    -9   -12   -14   -17   -20   -22   -25   -27   -30   -32   -34   -36   -38   -40   -42   -43   -45   -46   -47   -48   -49   -49   -50   -50   -50    45    45    45    44    44    43    42    41    40    39    37    36    34    33    31    29    27    25    22    20    18    15    13    10     8     5     3     0    -3    -5    -8   -10   -13   -15   -18   -20   -22   -25   -27   -29   -31   -33   -34   -36   -37   -39   -40   -41   -42   -43   -44   -44   -45   -45   -45    40    40    39    39    39    38    37    36    35    34    33    32    30    29    27    25    24    22    20    18    16    14    11     9     7     5     2     0    -2    -5    -7    -9   -11   -14   -16   -18   -20   -22   -24   -25   -27   -29   -30   -32   -33   -34   -35   -36   -37   -38   -39   -39   -39   -40   -40    34    34    34    34    33    33    32    31    31    30    29    27    26    25    23    22    20    19    17    15    14    12    10     8     6     4     2     0    -2    -4    -6    -8   -10   -12   -14   -15   -17   -19   -20   -22   -23   -25   -26   -27   -29   -30   -31   -31   -32   -33   -33   -34   -34   -34   -34    29    29    28    28    28    27    27    26    26    25    24    23    22    21    20    18    17    16    14    13    11    10     8     7     5     3     2     0    -2    -3    -5    -7    -8   -10   -11   -13   -14   -16   -17   -18   -20   -21   -22   -23   -24   -25   -26   -26   -27   -27   -28   -28   -28   -29   -29    23    23    23    23    22    22    22    21    21    20    19    18    18    17    16    15    14    13    12    10     9     8     7     5     4     3     1     0    -1    -3    -4    -5    -7    -8    -9   -10   -12   -13   -14   -15   -16   -17   -18   -18   -19   -20   -21   -21   -22   -22   -22   -23   -23   -23   -23    17    17    17    17    17    17    16    16    16    15    15    14    13    13    12    11    10    10     9     8     7     6     5     4     3     2     1     0    -1    -2    -3    -4    -5    -6    -7    -8    -9   -10   -10   -11   -12   -13   -13   -14   -15   -15   -16   -16   -16   -17   -17   -17   -17   -17   -17    12    12    12    11    11    11    11    11    10    10    10     9     9     8     8     7     7     6     6     5     5     4     3     3     2     1     1     0    -1    -1    -2    -3    -3    -4    -5    -5    -6    -6    -7    -7    -8    -8    -9    -9   -10   -10   -10   -11   -11   -11   -11   -11   -12   -12   -12     6     6     6     6     6     6     5     5     5     5     5     5     4     4     4     4     3     3     3     3     2     2     2     1     1     1     0     0    -0    -1    -1    -1    -2    -2    -2    -3    -3    -3    -3    -4    -4    -4    -4    -5    -5    -5    -5    -5    -5    -6    -6    -6    -6    -6    -6     0     0     0     0     0     0     0     0     0     0     0     0    -0    -0     0     0     0     0     0     0     0     0     0     0     0     0     0     0     0     0     0     0     0     0     0     0     0     0     0     0     0     0     0     0     0     0     0    -0    -0     0     0    -0    -0    -0    -0    -6    -6    -6    -6    -6    -6    -5    -5    -5    -5    -5    -5    -4    -4    -4    -4    -3    -3    -3    -3    -2    -2    -2    -1    -1    -1    -0     0     0     1     1     1     2     2     2     3     3     3     3     4     4     4     4     5     5     5     5     5     5     6     6     6     6     6     6   -12   -12   -12   -11   -11   -11   -11   -11   -10   -10   -10    -9    -9    -8    -8    -7    -7    -6    -6    -5    -5    -4    -3    -3    -2    -1    -1     0     1     1     2     3     3     4     5     5     6     6     7     7     8     8     9     9    10    10    10    11    11    11    11    11    12    12    12   -17   -17   -17   -17   -17   -17   -16   -16   -16   -15   -15   -14   -13   -13   -12   -11   -10   -10    -9    -8    -7    -6    -5    -4    -3    -2    -1     0     1     2     3     4     5     6     7     8     9    10    10    11    12    13    13    14    15    15    16    16    16    17    17    17    17    17    17   -23   -23   -23   -23   -22   -22   -22   -21   -21   -20   -19   -18   -18   -17   -16   -15   -14   -13   -12   -10    -9    -8    -7    -5    -4    -3    -1     0     1     3     4     5     7     8     9    10    12    13    14    15    16    17    18    18    19    20    21    21    22    22    22    23    23    23    23   -29   -29   -28   -28   -28   -27   -27   -26   -26   -25   -24   -23   -22   -21   -20   -18   -17   -16   -14   -13   -11   -10    -8    -7    -5    -3    -2     0     2     3     5     7     8    10    11    13    14    16    17    18    20    21    22    23    24    25    26    26    27    27    28    28    28    29    29   -34   -34   -34   -34   -33   -33   -32   -31   -31   -30   -29   -27   -26   -25   -23   -22   -20   -19   -17   -15   -14   -12   -10    -8    -6    -4    -2     0     2     4     6     8    10    12    14    15    17    19    20    22    23    25    26    27    29    30    31    31    32    33    33    34    34    34    34   -40   -40   -39   -39   -39   -38   -37   -36   -35   -34   -33   -32   -30   -29   -27   -25   -24   -22   -20   -18   -16   -14   -11    -9    -7    -5    -2     0     2     5     7     9    11    14    16    18    20    22    24    25    27    29    30    32    33    34    35    36    37    38    39    39    39    40    40   -45   -45   -45   -44   -44   -43   -42   -41   -40   -39   -37   -36   -34   -33   -31   -29   -27   -25   -22   -20   -18   -15   -13   -10    -8    -5    -3     0     3     5     8    10    13    15    18    20    22    25    27    29    31    33    34    36    37    39    40    41    42    43    44    44    45    45    45   -50   -50   -50   -49   -49   -48   -47   -46   -45   -43   -42   -40   -38   -36   -34   -32   -30   -27   -25   -22   -20   -17   -14   -12    -9    -6    -3     0     3     6     9    12    14    17    20    22    25    27    30    32    34    36    38    40    42    43    45    46    47    48    49    49    50    50    50   -55   -55   -55   -54   -53   -53   -52   -50   -49   -48   -46   -44   -42   -40   -38   -35   -33   -30   -27   -25   -22   -19   -16   -13   -10    -6    -3     0     3     6    10    13    16    19    22    25    27    30    33    35    38    40    42    44    46    48    49    50    52    53    53    54    55    55    55   -60   -60   -59   -59   -58   -57   -56   -55   -53   -52   -50   -48   -46   -43   -41   -38   -36   -33   -30   -27   -24   -20   -17   -14   -10    -7    -3     0     3     7    10    14    17    20    24    27    30    33    36    38    41    43    46    48    50    52    53    55    56    57    58    59    59    60    60   -64   -64   -64   -63   -63   -62   -60   -59   -57   -56   -54   -52   -49   -47   -44   -41   -38   -35   -32   -29   -25   -22   -18   -15   -11    -7    -4     0     4     7    11    15    18    22    25    29    32    35    38    41    44    47    49    52    54    56    57    59    60    62    63    63    64    64    64   -69   -69   -68   -68   -67   -66   -64   -63   -61   -59   -57   -55   -53   -50   -47   -44   -41   -38   -34   -31   -27   -23   -20   -16   -12    -8    -4     0     4     8    12    16    20    23    27    31    34    38    41    44    47    50    53    55    57    59    61    63    64    66    67    68    68    69    69   -73   -73   -72   -72   -71   -70   -68   -67   -65   -63   -61   -58   -56   -53   -50   -47   -43   -40   -36   -33   -29   -25   -21   -17   -13    -8    -4     0     4     8    13    17    21    25    29    33    36    40    43    47    50    53    56    58    61    63    65    67    68    70    71    72    72    73    73   -77   -76   -76   -75   -75   -73   -72   -70   -68   -66   -64   -61   -59   -56   -53   -49   -46   -42   -38   -34   -30   -26   -22   -18   -13    -9    -4     0     4     9    13    18    22    26    30    34    38    42    46    49    53    56    59    61    64    66    68    70    72    73    75    75    76    76    77   -80   -80   -80   -79   -78   -77   -75   -74   -72   -69   -67   -64   -61   -58   -55   -52   -48   -44   -40   -36   -32   -27   -23   -18   -14    -9    -5    -0     5     9    14    18    23    27    32    36    40    44    48    52    55    58    61    64    67    69    72    74    75    77    78    79    80    80    80   -84   -83   -83   -82   -81   -80   -79   -77   -75   -72   -70   -67   -64   -61   -57   -54   -50   -46   -42   -37   -33   -29   -24   -19   -15   -10    -5    -0     5    10    15    19    24    29    33    37    42    46    50    54    57    61    64    67    70    72    75    77    79    80    81    82    83    83    84   -87   -86   -86   -85   -84   -83   -81   -80   -77   -75   -72   -69   -66   -63   -59   -56   -52   -48   -43   -39   -34   -30   -25   -20   -15   -10    -5    -0     5    10    15    20    25    30    34    39    43    48    52    56    59    63    66    69    72    75    77    80    81    83    84    85    86    86    87   -89   -89   -89   -88   -87   -86   -84   -82   -80   -77   -75   -72   -68   -65   -61   -57   -53   -49   -45   -40   -35   -31   -26   -21   -16   -10    -5    -0     5    10    16    21    26    31    35    40    45    49    53    57    61    65    68    72    75    77    80    82    84    86    87    88    89    89    89   -92   -92   -91   -90   -89   -88   -86   -84   -82   -80   -77   -74   -70   -67   -63   -59   -55   -50   -46   -41   -36   -31   -26   -21   -16   -11    -5    -0     5    11    16    21    26    31    36    41    46    50    55    59    63    67    70    74    77    80    82    84    86    88    89    90    91    92    92   -94   -94   -93   -93   -91   -90   -88   -86   -84   -81   -79   -75   -72   -68   -64   -60   -56   -52   -47   -42   -37   -32   -27   -22   -16   -11    -5    -0     5    11    16    22    27    32    37    42    47    52    56    60    64    68    72    75    79    81    84    86    88    90    91    93    93    94    94   -96   -96   -95   -94   -93   -92   -90   -88   -86   -83   -80   -77   -73   -70   -66   -62   -57   -53   -48   -43   -38   -33   -27   -22   -17   -11    -6    -0     6    11    17    22    27    33    38    43    48    53    57    62    66    70    73    77    80    83    86    88    90    92    93    94    95    96    96   -97   -97   -97   -96   -95   -93   -91   -89   -87   -84   -81   -78   -75   -71   -67   -63   -58   -53   -49   -44   -39   -33   -28   -22   -17   -11    -6    -0     6    11    17    22    28    33    39    44    49    53    58    63    67    71    75    78    81    84    87    89    91    93    95    96    97    97    97   -98   -98   -98   -97   -96   -94   -93   -90   -88   -85   -82   -79   -75   -72   -68   -63   -59   -54   -49   -44   -39   -34   -28   -23   -17   -11    -6    -0     6    11    17    23    28    34    39    44    49    54    59    63    68    72    75    79    82    85    88    90    93    94    96    97    98    98    98   -99   -99   -99   -98   -97   -95   -93   -91   -89   -86   -83   -80   -76   -72   -68   -64   -59   -55   -50   -45   -39   -34   -28   -23   -17   -12    -6    -0     6    12    17    23    28    34    39    45    50    55    59    64    68    72    76    80    83    86    89    91    93    95    97    98    99    99    99  -100  -100   -99   -98   -97   -96   -94   -92   -89   -86   -83   -80   -76   -73   -69   -64   -60   -55   -50   -45   -40   -34   -29   -23   -17   -12    -6    -0     6    12    17    23    29    34    40    45    50    55    60    64    69    73    76    80    83    86    89    92    94    96    97    98    99   100   100  -100  -100   -99   -98   -97   -96   -94   -92   -89   -87   -84   -80   -77   -73   -69   -64   -60   -55   -50   -45   -40   -34   -29   -23   -17   -12    -6    -0     6    12    17    23    29    34    40    45    50    55    60    64    69    73    77    80    84    87    89    92    94    96    97    98    99   100   100
