# vtk DataFile Version 2.0
Volume example
ASCII
DATASET STRUCTURED_POINTS
DIMENSIONS 47 47 1
ASPECT_RATIO 1 1 1
ORIGIN 0 0 0
POINT_DATA 2209
SCALARS volume_scalars char 1
LOOKUP_TABLE default
100   100    99    98    96    94    92    89    85    82    78    73    68    63    58    52    46    40    33    27    20    14     7     0    -7   -14   -20   -27   -33   -40   -46   -52   -58   -63   -68   -73   -78   -82   -85   -89   -92   -94   -96   -98   -99  -100  -100   100   100    99    98    96    94    92    89    85    82    77    73    68    63    58    52    46    40    33    27    20    14     7     0    -7   -14   -20   -27   -33   -40   -46   -52   -58   -63   -68   -73   -77   -82   -85   -89   -92   -94   -96   -98   -99  -100  -100    99    99    98    97    95    93    91    88    85    81    77    72    68    63    57    51    46    39    33    27    20    13     7     0    -7   -13   -20   -27   -33   -39   -46   -51   -57   -63   -68   -72   -77   -81   -85   -88   -91   -93   -95   -97   -98   -99   -99    98    98    97    96    94    92    90    87    84    80    76    72    67    62    56    51    45    39    33    26    20    13     7     0    -7   -13   -20   -26   -33   -39   -45   -51   -56   -62   -67   -72   -76   -80   -84   -87   -90   -92   -94   -96   -97   -98   -98    96    96    95    94    93    91    88    85    82    79    75    70    66    61    56    50    44    38    32    26    20    13     7     0    -7   -13   -20   -26   -32   -38   -44   -50   -56   -61   -66   -70   -75   -79   -82   -85   -88   -91   -93   -94   -95   -96   -96    94    94    93    92    91    89    86    84    81    77    73    69    64    59    54    49    43    38    32    25    19    13     6     0    -6   -13   -19   -25   -32   -38   -43   -49   -54   -59   -64   -69   -73   -77   -81   -84   -86   -89   -91   -92   -93   -94   -94    92    92    91    90    88    86    84    81    78    75    71    67    63    58    53    48    42    37    31    25    19    12     6     0    -6   -12   -19   -25   -31   -37   -42   -48   -53   -58   -63   -67   -71   -75   -78   -81   -84   -86   -88   -90   -91   -92   -92    89    89    88    87    85    84    81    79    76    73    69    65    61    56    51    46    41    35    30    24    18    12     6     0    -6   -12   -18   -24   -30   -35   -41   -46   -51   -56   -61   -65   -69   -73   -76   -79   -81   -84   -85   -87   -88   -89   -89    85    85    85    84    82    81    78    76    73    70    66    62    58    54    49    44    39    34    29    23    17    12     6     0    -6   -12   -17   -23   -29   -34   -39   -44   -49   -54   -58   -62   -66   -70   -73   -76   -78   -81   -82   -84   -85   -85   -85    82    82    81    80    79    77    75    73    70    67    63    60    56    52    47    42    38    33    27    22    17    11     6     0    -6   -11   -17   -22   -27   -33   -38   -42   -47   -52   -56   -60   -63   -67   -70   -73   -75   -77   -79   -80   -81   -82   -82    78    77    77    76    75    73    71    69    66    63    60    57    53    49    45    40    36    31    26    21    16    11     5     0    -5   -11   -16   -21   -26   -31   -36   -40   -45   -49   -53   -57   -60   -63   -66   -69   -71   -73   -75   -76   -77   -77   -78    73    73    72    72    70    69    67    65    62    60    57    53    50    46    42    38    34    29    24    20    15    10     5     0    -5   -10   -15   -20   -24   -29   -34   -38   -42   -46   -50   -53   -57   -60   -62   -65   -67   -69   -70   -72   -72   -73   -73    68    68    68    67    66    64    63    61    58    56    53    50    47    43    39    35    31    27    23    18    14     9     5     0    -5    -9   -14   -18   -23   -27   -31   -35   -39   -43   -47   -50   -53   -56   -58   -61   -63   -64   -66   -67   -68   -68   -68    63    63    63    62    61    59    58    56    54    52    49    46    43    40    36    33    29    25    21    17    13     9     4     0    -4    -9   -13   -17   -21   -25   -29   -33   -36   -40   -43   -46   -49   -52   -54   -56   -58   -59   -61   -62   -63   -63   -63    58    58    57    56    56    54    53    51    49    47    45    42    39    36    33    30    27    23    19    16    12     8     4     0    -4    -8   -12   -16   -19   -23   -27   -30   -33   -36   -39   -42   -45   -47   -49   -51   -53   -54   -56   -56   -57   -58   -58    52    52    51    51    50    49    48    46    44    42    40    38    35    33    30    27    24    21    17    14    11     7     4     0    -4    -7   -11   -14   -17   -21   -24   -27   -30   -33   -35   -38   -40   -42   -44   -46   -48   -49   -50   -51   -51   -52   -52    46    46    46    45    44    43    42    41    39    38    36    34    31    29    27    24    21    18    15    12     9     6     3     0    -3    -6    -9   -12   -15   -18   -21   -24   -27   -29   -31   -34   -36   -38   -39   -41   -42   -43   -44   -45   -46   -46   -46    40    40    39    39    38    38    37    35    34    33    31    29    27    25    23    21    18    16    13    11     8     5     3     0    -3    -5    -8   -11   -13   -16   -18   -21   -23   -25   -27   -29   -31   -33   -34   -35   -37   -38   -38   -39   -39   -40   -40    33    33    33    33    32    32    31    30    29    27    26    24    23    21    19    17    15    13    11     9     7     5     2     0    -2    -5    -7    -9   -11   -13   -15   -17   -19   -21   -23   -24   -26   -27   -29   -30   -31   -32   -32   -33   -33   -33   -33    27    27    27    26    26    25    25    24    23    22    21    20    18    17    16    14    12    11     9     7     5     4     2     0    -2    -4    -5    -7    -9   -11   -12   -14   -16   -17   -18   -20   -21   -22   -23   -24   -25   -25   -26   -26   -27   -27   -27    20    20    20    20    20    19    19    18    17    17    16    15    14    13    12    11     9     8     7     5     4     3     1     0    -1    -3    -4    -5    -7    -8    -9   -11   -12   -13   -14   -15   -16   -17   -17   -18   -19   -19   -20   -20   -20   -20   -20    14    14    13    13    13    13    12    12    12    11    11    10     9     9     8     7     6     5     5     4     3     2     1     0    -1    -2    -3    -4    -5    -5    -6    -7    -8    -9    -9   -10   -11   -11   -12   -12   -12   -13   -13   -13   -13   -14   -14     7     7     7     7     7     6     6     6     6     6     5     5     5     4     4     4     3     3     2     2     1     1     0     0    -0    -1    -1    -2    -2    -3    -3    -4    -4    -4    -5    -5    -5    -6    -6    -6    -6    -6    -7    -7    -7    -7    -7     0     0     0     0     0     0     0     0     0     0     0     0     0     0     0     0     0     0     0     0     0     0     0     0     0     0     0     0     0     0     0     0     0     0     0     0     0     0     0     0     0     0     0     0     0     0     0    -7    -7    -7    -7    -7    -6    -6    -6    -6    -6    -5    -5    -5    -4    -4    -4    -3    -3    -2    -2    -1    -1    -0     0     0     1     1     2     2     3     3     4     4     4     5     5     5     6     6     6     6     6     7     7     7     7     7   -14   -14   -13   -13   -13   -13   -12   -12   -12   -11   -11   -10    -9    -9    -8    -7    -6    -5    -5    -4    -3    -2    -1     0     1     2     3     4     5     5     6     7     8     9     9    10    11    11    12    12    12    13    13    13    13    14    14   -20   -20   -20   -20   -20   -19   -19   -18   -17   -17   -16   -15   -14   -13   -12   -11    -9    -8    -7    -5    -4    -3    -1     0     1     3     4     5     7     8     9    11    12    13    14    15    16    17    17    18    19    19    20    20    20    20    20   -27   -27   -27   -26   -26   -25   -25   -24   -23   -22   -21   -20   -18   -17   -16   -14   -12   -11    -9    -7    -5    -4    -2     0     2     4     5     7     9    11    12    14    16    17    18    20    21    22    23    24    25    25    26    26    27    27    27   -33   -33   -33   -33   -32   -32   -31   -30   -29   -27   -26   -24   -23   -21   -19   -17   -15   -13   -11    -9    -7    -5    -2     0     2     5     7     9    11    13    15    17    19    21    23    24    26    27    29    30    31    32    32    33    33    33    33   -40   -40   -39   -39   -38   -38   -37   -35   -34   -33   -31   -29   -27   -25   -23   -21   -18   -16   -13   -11    -8    -5    -3     0     3     5     8    11    13    16    18    21    23    25    27    29    31    33    34    35    37    38    38    39    39    40    40   -46   -46   -46   -45   -44   -43   -42   -41   -39   -38   -36   -34   -31   -29   -27   -24   -21   -18   -15   -12    -9    -6    -3     0     3     6     9    12    15    18    21    24    27    29    31    34    36    38    39    41    42    43    44    45    46    46    46   -52   -52   -51   -51   -50   -49   -48   -46   -44   -42   -40   -38   -35   -33   -30   -27   -24   -21   -17   -14   -11    -7    -4     0     4     7    11    14    17    21    24    27    30    33    35    38    40    42    44    46    48    49    50    51    51    52    52   -58   -58   -57   -56   -56   -54   -53   -51   -49   -47   -45   -42   -39   -36   -33   -30   -27   -23   -19   -16   -12    -8    -4     0     4     8    12    16    19    23    27    30    33    36    39    42    45    47    49    51    53    54    56    56    57    58    58   -63   -63   -63   -62   -61   -59   -58   -56   -54   -52   -49   -46   -43   -40   -36   -33   -29   -25   -21   -17   -13    -9    -4     0     4     9    13    17    21    25    29    33    36    40    43    46    49    52    54    56    58    59    61    62    63    63    63   -68   -68   -68   -67   -66   -64   -63   -61   -58   -56   -53   -50   -47   -43   -39   -35   -31   -27   -23   -18   -14    -9    -5     0     5     9    14    18    23    27    31    35    39    43    47    50    53    56    58    61    63    64    66    67    68    68    68   -73   -73   -72   -72   -70   -69   -67   -65   -62   -60   -57   -53   -50   -46   -42   -38   -34   -29   -24   -20   -15   -10    -5     0     5    10    15    20    24    29    34    38    42    46    50    53    57    60    62    65    67    69    70    72    72    73    73   -78   -77   -77   -76   -75   -73   -71   -69   -66   -63   -60   -57   -53   -49   -45   -40   -36   -31   -26   -21   -16   -11    -5     0     5    11    16    21    26    31    36    40    45    49    53    57    60    63    66    69    71    73    75    76    77    77    78   -82   -82   -81   -80   -79   -77   -75   -73   -70   -67   -63   -60   -56   -52   -47   -42   -38   -33   -27   -22   -17   -11    -6     0     6    11    17    22    27    33    38    42    47    52    56    60    63    67    70    73    75    77    79    80    81    82    82   -85   -85   -85   -84   -82   -81   -78   -76   -73   -70   -66   -62   -58   -54   -49   -44   -39   -34   -29   -23   -17   -12    -6     0     6    12    17    23    29    34    39    44    49    54    58    62    66    70    73    76    78    81    82    84    85    85    85   -89   -89   -88   -87   -85   -84   -81   -79   -76   -73   -69   -65   -61   -56   -51   -46   -41   -35   -30   -24   -18   -12    -6     0     6    12    18    24    30    35    41    46    51    56    61    65    69    73    76    79    81    84    85    87    88    89    89   -92   -92   -91   -90   -88   -86   -84   -81   -78   -75   -71   -67   -63   -58   -53   -48   -42   -37   -31   -25   -19   -12    -6     0     6    12    19    25    31    37    42    48    53    58    63    67    71    75    78    81    84    86    88    90    91    92    92   -94   -94   -93   -92   -91   -89   -86   -84   -81   -77   -73   -69   -64   -59   -54   -49   -43   -38   -32   -25   -19   -13    -6     0     6    13    19    25    32    38    43    49    54    59    64    69    73    77    81    84    86    89    91    92    93    94    94   -96   -96   -95   -94   -93   -91   -88   -85   -82   -79   -75   -70   -66   -61   -56   -50   -44   -38   -32   -26   -20   -13    -7     0     7    13    20    26    32    38    44    50    56    61    66    70    75    79    82    85    88    91    93    94    95    96    96   -98   -98   -97   -96   -94   -92   -90   -87   -84   -80   -76   -72   -67   -62   -56   -51   -45   -39   -33   -26   -20   -13    -7     0     7    13    20    26    33    39    45    51    56    62    67    72    76    80    84    87    90    92    94    96    97    98    98   -99   -99   -98   -97   -95   -93   -91   -88   -85   -81   -77   -72   -68   -63   -57   -51   -46   -39   -33   -27   -20   -13    -7     0     7    13    20    27    33    39    46    51    57    63    68    72    77    81    85    88    91    93    95    97    98    99    99  -100  -100   -99   -98   -96   -94   -92   -89   -85   -82   -77   -73   -68   -63   -58   -52   -46   -40   -33   -27   -20   -14    -7     0     7    14    20    27    33    40    46    52    58    63    68    73    77    82    85    89    92    94    96    98    99   100   100  -100  -100   -99   -98   -96   -94   -92   -89   -85   -82   -78   -73   -68   -63   -58   -52   -46   -40   -33   -27   -20   -14    -7     0     7    14    20    27    33    40    46    52    58    63    68    73    78    82    85    89    92    94    96    98    99   100   100
