# vtk DataFile Version 2.0
Volume example
ASCII
DATASET STRUCTURED_POINTS
DIMENSIONS 51 51 1
ASPECT_RATIO 1 1 1
ORIGIN 0 0 0
POINT_DATA 2601
SCALARS volume_scalars char 1
LOOKUP_TABLE default
100   100    99    98    97    95    93    90    88    84    81    77    73    68    64    59    54    48    43    37    31    25    19    13     6     0    -6   -13   -19   -25   -31   -37   -43   -48   -54   -59   -64   -68   -73   -77   -81   -84   -88   -90   -93   -95   -97   -98   -99  -100  -100   100   100    99    98    97    95    93    90    87    84    81    77    73    68    64    59    53    48    42    37    31    25    19    13     6     0    -6   -13   -19   -25   -31   -37   -42   -48   -53   -59   -64   -68   -73   -77   -81   -84   -87   -90   -93   -95   -97   -98   -99  -100  -100    99    99    98    97    96    94    92    90    87    84    80    76    72    68    63    58    53    48    42    37    31    25    19    12     6     0    -6   -12   -19   -25   -31   -37   -42   -48   -53   -58   -63   -68   -72   -76   -80   -84   -87   -90   -92   -94   -96   -97   -98   -99   -99    98    98    97    96    95    93    91    89    86    83    79    76    72    67    63    58    53    47    42    36    30    24    18    12     6     0    -6   -12   -18   -24   -30   -36   -42   -47   -53   -58   -63   -67   -72   -76   -79   -83   -86   -89   -91   -93   -95   -96   -97   -98   -98    97    97    96    95    94    92    90    88    85    82    78    75    71    66    62    57    52    47    41    36    30    24    18    12     6     0    -6   -12   -18   -24   -30   -36   -41   -47   -52   -57   -62   -66   -71   -75   -78   -82   -85   -88   -90   -92   -94   -95   -96   -97   -97    95    95    94    93    92    90    88    86    83    80    77    73    69    65    61    56    51    46    40    35    29    24    18    12     6     0    -6   -12   -18   -24   -29   -35   -40   -46   -51   -56   -61   -65   -69   -73   -77   -80   -83   -86   -88   -90   -92   -93   -94   -95   -95    93    93    92    91    90    88    86    84    81    79    75    72    68    64    59    55    50    45    40    34    29    23    17    12     6     0    -6   -12   -17   -23   -29   -34   -40   -45   -50   -55   -59   -64   -68   -72   -75   -79   -81   -84   -86   -88   -90   -91   -92   -93   -93    90    90    90    89    88    86    84    82    79    76    73    70    66    62    58    53    48    44    39    33    28    23    17    11     6     0    -6   -11   -17   -23   -28   -33   -39   -44   -48   -53   -58   -62   -66   -70   -73   -76   -79   -82   -84   -86   -88   -89   -90   -90   -90    88    87    87    86    85    83    81    79    77    74    71    68    64    60    56    52    47    42    37    32    27    22    16    11     6     0    -6   -11   -16   -22   -27   -32   -37   -42   -47   -52   -56   -60   -64   -68   -71   -74   -77   -79   -81   -83   -85   -86   -87   -87   -88    84    84    84    83    82    80    79    76    74    71    68    65    62    58    54    50    45    41    36    31    26    21    16    11     5     0    -5   -11   -16   -21   -26   -31   -36   -41   -45   -50   -54   -58   -62   -65   -68   -71   -74   -76   -79   -80   -82   -83   -84   -84   -84    81    81    80    79    78    77    75    73    71    68    65    62    59    55    52    48    43    39    34    30    25    20    15    10     5     0    -5   -10   -15   -20   -25   -30   -34   -39   -43   -48   -52   -55   -59   -62   -65   -68   -71   -73   -75   -77   -78   -79   -80   -81   -81    77    77    76    76    75    73    72    70    68    65    62    59    56    53    49    45    41    37    33    28    24    19    14    10     5     0    -5   -10   -14   -19   -24   -28   -33   -37   -41   -45   -49   -53   -56   -59   -62   -65   -68   -70   -72   -73   -75   -76   -76   -77   -77    73    73    72    72    71    69    68    66    64    62    59    56    53    50    46    43    39    35    31    27    23    18    14     9     5     0    -5    -9   -14   -18   -23   -27   -31   -35   -39   -43   -46   -50   -53   -56   -59   -62   -64   -66   -68   -69   -71   -72   -72   -73   -73    68    68    68    67    66    65    64    62    60    58    55    53    50    47    44    40    37    33    29    25    21    17    13     9     4     0    -4    -9   -13   -17   -21   -25   -29   -33   -37   -40   -44   -47   -50   -53   -55   -58   -60   -62   -64   -65   -66   -67   -68   -68   -68    64    64    63    63    62    61    59    58    56    54    52    49    46    44    41    37    34    31    27    23    20    16    12     8     4     0    -4    -8   -12   -16   -20   -23   -27   -31   -34   -37   -41   -44   -46   -49   -52   -54   -56   -58   -59   -61   -62   -63   -63   -64   -64    59    59    58    58    57    56    55    53    52    50    48    45    43    40    37    35    31    28    25    22    18    15    11     7     4     0    -4    -7   -11   -15   -18   -22   -25   -28   -31   -35   -37   -40   -43   -45   -48   -50   -52   -53   -55   -56   -57   -58   -58   -59   -59    54    53    53    53    52    51    50    48    47    45    43    41    39    37    34    31    29    26    23    20    17    13    10     7     3     0    -3    -7   -10   -13   -17   -20   -23   -26   -29   -31   -34   -37   -39   -41   -43   -45   -47   -48   -50   -51   -52   -53   -53   -53   -54    48    48    48    47    47    46    45    44    42    41    39    37    35    33    31    28    26    23    21    18    15    12     9     6     3     0    -3    -6    -9   -12   -15   -18   -21   -23   -26   -28   -31   -33   -35   -37   -39   -41   -42   -44   -45   -46   -47   -47   -48   -48   -48    43    42    42    42    41    40    40    39    37    36    34    33    31    29    27    25    23    21    18    16    13    11     8     5     3     0    -3    -5    -8   -11   -13   -16   -18   -21   -23   -25   -27   -29   -31   -33   -34   -36   -37   -39   -40   -40   -41   -42   -42   -42   -43    37    37    37    36    36    35    34    33    32    31    30    28    27    25    23    22    20    18    16    14    11     9     7     5     2     0    -2    -5    -7    -9   -11   -14   -16   -18   -20   -22   -23   -25   -27   -28   -30   -31   -32   -33   -34   -35   -36   -36   -37   -37   -37    31    31    31    30    30    29    29    28    27    26    25    24    23    21    20    18    17    15    13    11    10     8     6     4     2     0    -2    -4    -6    -8   -10   -11   -13   -15   -17   -18   -20   -21   -23   -24   -25   -26   -27   -28   -29   -29   -30   -30   -31   -31   -31    25    25    25    24    24    24    23    23    22    21    20    19    18    17    16    15    13    12    11     9     8     6     5     3     2     0    -2    -3    -5    -6    -8    -9   -11   -12   -13   -15   -16   -17   -18   -19   -20   -21   -22   -23   -23   -24   -24   -24   -25   -25   -25    19    19    19    18    18    18    17    17    16    16    15    14    14    13    12    11    10     9     8     7     6     5     4     2     1     0    -1    -2    -4    -5    -6    -7    -8    -9   -10   -11   -12   -13   -14   -14   -15   -16   -16   -17   -17   -18   -18   -18   -19   -19   -19    13    13    12    12    12    12    12    11    11    11    10    10     9     9     8     7     7     6     5     5     4     3     2     2     1     0    -1    -2    -2    -3    -4    -5    -5    -6    -7    -7    -8    -9    -9   -10   -10   -11   -11   -11   -12   -12   -12   -12   -12   -13   -13     6     6     6     6     6     6     6     6     6     5     5     5     5     4     4     4     3     3     3     2     2     2     1     1     0     0    -0    -1    -1    -2    -2    -2    -3    -3    -3    -4    -4    -4    -5    -5    -5    -5    -6    -6    -6    -6    -6    -6    -6    -6    -6    -0    -0    -0    -0    -0    -0    -0    -0    -0    -0    -0    -0    -0    -0    -0    -0    -0    -0    -0    -0    -0    -0    -0    -0     0     0     0     0     0     0     0     0     0     0     0     0     0     0     0     0     0     0     0     0     0     0     0     0     0     0     0    -6    -6    -6    -6    -6    -6    -6    -6    -6    -5    -5    -5    -5    -4    -4    -4    -3    -3    -3    -2    -2    -2    -1    -1    -0     0     0     1     1     2     2     2     3     3     3     4     4     4     5     5     5     5     6     6     6     6     6     6     6     6     6   -13   -13   -12   -12   -12   -12   -12   -11   -11   -11   -10   -10    -9    -9    -8    -7    -7    -6    -5    -5    -4    -3    -2    -2    -1     0     1     2     2     3     4     5     5     6     7     7     8     9     9    10    10    11    11    11    12    12    12    12    12    13    13   -19   -19   -19   -18   -18   -18   -17   -17   -16   -16   -15   -14   -14   -13   -12   -11   -10    -9    -8    -7    -6    -5    -4    -2    -1     0     1     2     4     5     6     7     8     9    10    11    12    13    14    14    15    16    16    17    17    18    18    18    19    19    19   -25   -25   -25   -24   -24   -24   -23   -23   -22   -21   -20   -19   -18   -17   -16   -15   -13   -12   -11    -9    -8    -6    -5    -3    -2     0     2     3     5     6     8     9    11    12    13    15    16    17    18    19    20    21    22    23    23    24    24    24    25    25    25   -31   -31   -31   -30   -30   -29   -29   -28   -27   -26   -25   -24   -23   -21   -20   -18   -17   -15   -13   -11   -10    -8    -6    -4    -2     0     2     4     6     8    10    11    13    15    17    18    20    21    23    24    25    26    27    28    29    29    30    30    31    31    31   -37   -37   -37   -36   -36   -35   -34   -33   -32   -31   -30   -28   -27   -25   -23   -22   -20   -18   -16   -14   -11    -9    -7    -5    -2     0     2     5     7     9    11    14    16    18    20    22    23    25    27    28    30    31    32    33    34    35    36    36    37    37    37   -43   -42   -42   -42   -41   -40   -40   -39   -37   -36   -34   -33   -31   -29   -27   -25   -23   -21   -18   -16   -13   -11    -8    -5    -3    -0     3     5     8    11    13    16    18    21    23    25    27    29    31    33    34    36    37    39    40    40    41    42    42    42    43   -48   -48   -48   -47   -47   -46   -45   -44   -42   -41   -39   -37   -35   -33   -31   -28   -26   -23   -21   -18   -15   -12    -9    -6    -3    -0     3     6     9    12    15    18    21    23    26    28    31    33    35    37    39    41    42    44    45    46    47    47    48    48    48   -54   -53   -53   -53   -52   -51   -50   -48   -47   -45   -43   -41   -39   -37   -34   -31   -29   -26   -23   -20   -17   -13   -10    -7    -3    -0     3     7    10    13    17    20    23    26    29    31    34    37    39    41    43    45    47    48    50    51    52    53    53    53    54   -59   -59   -58   -58   -57   -56   -55   -53   -52   -50   -48   -45   -43   -40   -37   -35   -31   -28   -25   -22   -18   -15   -11    -7    -4    -0     4     7    11    15    18    22    25    28    31    35    37    40    43    45    48    50    52    53    55    56    57    58    58    59    59   -64   -64   -63   -63   -62   -61   -59   -58   -56   -54   -52   -49   -46   -44   -41   -37   -34   -31   -27   -23   -20   -16   -12    -8    -4    -0     4     8    12    16    20    23    27    31    34    37    41    44    46    49    52    54    56    58    59    61    62    63    63    64    64   -68   -68   -68   -67   -66   -65   -64   -62   -60   -58   -55   -53   -50   -47   -44   -40   -37   -33   -29   -25   -21   -17   -13    -9    -4    -0     4     9    13    17    21    25    29    33    37    40    44    47    50    53    55    58    60    62    64    65    66    67    68    68    68   -73   -73   -72   -72   -71   -69   -68   -66   -64   -62   -59   -56   -53   -50   -46   -43   -39   -35   -31   -27   -23   -18   -14    -9    -5    -0     5     9    14    18    23    27    31    35    39    43    46    50    53    56    59    62    64    66    68    69    71    72    72    73    73   -77   -77   -76   -76   -75   -73   -72   -70   -68   -65   -62   -59   -56   -53   -49   -45   -41   -37   -33   -28   -24   -19   -14   -10    -5    -0     5    10    14    19    24    28    33    37    41    45    49    53    56    59    62    65    68    70    72    73    75    76    76    77    77   -81   -81   -80   -79   -78   -77   -75   -73   -71   -68   -65   -62   -59   -55   -52   -48   -43   -39   -34   -30   -25   -20   -15   -10    -5    -0     5    10    15    20    25    30    34    39    43    48    52    55    59    62    65    68    71    73    75    77    78    79    80    81    81   -84   -84   -84   -83   -82   -80   -79   -76   -74   -71   -68   -65   -62   -58   -54   -50   -45   -41   -36   -31   -26   -21   -16   -11    -5    -0     5    11    16    21    26    31    36    41    45    50    54    58    62    65    68    71    74    76    79    80    82    83    84    84    84   -88   -87   -87   -86   -85   -83   -81   -79   -77   -74   -71   -68   -64   -60   -56   -52   -47   -42   -37   -32   -27   -22   -16   -11    -6    -0     6    11    16    22    27    32    37    42    47    52    56    60    64    68    71    74    77    79    81    83    85    86    87    87    88   -90   -90   -90   -89   -88   -86   -84   -82   -79   -76   -73   -70   -66   -62   -58   -53   -48   -44   -39   -33   -28   -23   -17   -11    -6    -0     6    11    17    23    28    33    39    44    48    53    58    62    66    70    73    76    79    82    84    86    88    89    90    90    90   -93   -93   -92   -91   -90   -88   -86   -84   -81   -79   -75   -72   -68   -64   -59   -55   -50   -45   -40   -34   -29   -23   -17   -12    -6    -0     6    12    17    23    29    34    40    45    50    55    59    64    68    72    75    79    81    84    86    88    90    91    92    93    93   -95   -95   -94   -93   -92   -90   -88   -86   -83   -80   -77   -73   -69   -65   -61   -56   -51   -46   -40   -35   -29   -24   -18   -12    -6    -0     6    12    18    24    29    35    40    46    51    56    61    65    69    73    77    80    83    86    88    90    92    93    94    95    95   -97   -97   -96   -95   -94   -92   -90   -88   -85   -82   -78   -75   -71   -66   -62   -57   -52   -47   -41   -36   -30   -24   -18   -12    -6    -0     6    12    18    24    30    36    41    47    52    57    62    66    71    75    78    82    85    88    90    92    94    95    96    97    97   -98   -98   -97   -96   -95   -93   -91   -89   -86   -83   -79   -76   -72   -67   -63   -58   -53   -47   -42   -36   -30   -24   -18   -12    -6    -0     6    12    18    24    30    36    42    47    53    58    63    67    72    76    79    83    86    89    91    93    95    96    97    98    98   -99   -99   -98   -97   -96   -94   -92   -90   -87   -84   -80   -76   -72   -68   -63   -58   -53   -48   -42   -37   -31   -25   -19   -12    -6    -0     6    12    19    25    31    37    42    48    53    58    63    68    72    76    80    84    87    90    92    94    96    97    98    99    99  -100  -100   -99   -98   -97   -95   -93   -90   -87   -84   -81   -77   -73   -68   -64   -59   -53   -48   -42   -37   -31   -25   -19   -13    -6    -0     6    13    19    25    31    37    42    48    53    59    64    68    73    77    81    84    87    90    93    95    97    98    99   100   100  -100  -100   -99   -98   -97   -95   -93   -90   -88   -84   -81   -77   -73   -68   -64   -59   -54   -48   -43   -37   -31   -25   -19   -13    -6    -0     6    13    19    25    31    37    43    48    54    59    64    68    73    77    81    84    88    90    93    95    97    98    99   100   100
