# vtk DataFile Version 2.0
Volume example
ASCII
DATASET STRUCTURED_POINTS
DIMENSIONS 44 44 1
ASPECT_RATIO 1 1 1
ORIGIN 0 0 0
POINT_DATA 1936
SCALARS volume_scalars char 1
LOOKUP_TABLE default
100   100    99    98    96    93    91    87    83    79    74    69    64    58    52    46    39    32    25    18    11     4    -4   -11   -18   -25   -32   -39   -46   -52   -58   -64   -69   -74   -79   -83   -87   -91   -93   -96   -98   -99  -100  -100   100    99    99    97    96    93    90    87    83    79    74    69    64    58    52    46    39    32    25    18    11     4    -4   -11   -18   -25   -32   -39   -46   -52   -58   -64   -69   -74   -79   -83   -87   -90   -93   -96   -97   -99   -99  -100    99    99    98    97    95    92    90    86    83    78    74    69    63    58    52    45    39    32    25    18    11     4    -4   -11   -18   -25   -32   -39   -45   -52   -58   -63   -69   -74   -78   -83   -86   -90   -92   -95   -97   -98   -99   -99    98    97    97    95    93    91    88    85    81    77    73    68    62    57    51    45    38    32    25    18    11     4    -4   -11   -18   -25   -32   -38   -45   -51   -57   -62   -68   -73   -77   -81   -85   -88   -91   -93   -95   -97   -97   -98    96    96    95    93    92    89    87    84    80    76    71    66    61    56    50    44    37    31    24    17    10     3    -3   -10   -17   -24   -31   -37   -44   -50   -56   -61   -66   -71   -76   -80   -84   -87   -89   -92   -93   -95   -96   -96    93    93    92    91    89    87    85    81    78    74    70    65    60    54    49    43    37    30    24    17    10     3    -3   -10   -17   -24   -30   -37   -43   -49   -54   -60   -65   -70   -74   -78   -81   -85   -87   -89   -91   -92   -93   -93    91    90    90    88    87    85    82    79    76    72    67    63    58    53    47    41    35    29    23    16    10     3    -3   -10   -16   -23   -29   -35   -41   -47   -53   -58   -63   -67   -72   -76   -79   -82   -85   -87   -88   -90   -90   -91    87    87    86    85    84    81    79    76    73    69    65    61    56    51    45    40    34    28    22    16    10     3    -3   -10   -16   -22   -28   -34   -40   -45   -51   -56   -61   -65   -69   -73   -76   -79   -81   -84   -85   -86   -87   -87    83    83    83    81    80    78    76    73    70    66    62    58    53    49    43    38    33    27    21    15     9     3    -3    -9   -15   -21   -27   -33   -38   -43   -49   -53   -58   -62   -66   -70   -73   -76   -78   -80   -81   -83   -83   -83    79    79    78    77    76    74    72    69    66    63    59    55    51    46    41    36    31    26    20    14     9     3    -3    -9   -14   -20   -26   -31   -36   -41   -46   -51   -55   -59   -63   -66   -69   -72   -74   -76   -77   -78   -79   -79    74    74    74    73    71    70    67    65    62    59    55    52    48    43    39    34    29    24    19    14     8     3    -3    -8   -14   -19   -24   -29   -34   -39   -43   -48   -52   -55   -59   -62   -65   -67   -70   -71   -73   -74   -74   -74    69    69    69    68    66    65    63    61    58    55    52    48    44    40    36    32    27    22    18    13     8     3    -3    -8   -13   -18   -22   -27   -32   -36   -40   -44   -48   -52   -55   -58   -61   -63   -65   -66   -68   -69   -69   -69    64    64    63    62    61    60    58    56    53    51    48    44    41    37    33    29    25    21    16    12     7     2    -2    -7   -12   -16   -21   -25   -29   -33   -37   -41   -44   -48   -51   -53   -56   -58   -60   -61   -62   -63   -64   -64    58    58    58    57    56    54    53    51    49    46    43    40    37    34    30    27    23    19    15    11     6     2    -2    -6   -11   -15   -19   -23   -27   -30   -34   -37   -40   -43   -46   -49   -51   -53   -54   -56   -57   -58   -58   -58    52    52    52    51    50    49    47    45    43    41    39    36    33    30    27    24    20    17    13     9     6     2    -2    -6    -9   -13   -17   -20   -24   -27   -30   -33   -36   -39   -41   -43   -45   -47   -49   -50   -51   -52   -52   -52    46    46    45    45    44    43    41    40    38    36    34    32    29    27    24    21    18    15    12     8     5     2    -2    -5    -8   -12   -15   -18   -21   -24   -27   -29   -32   -34   -36   -38   -40   -41   -43   -44   -45   -45   -46   -46    39    39    39    38    37    37    35    34    33    31    29    27    25    23    20    18    15    13    10     7     4     1    -1    -4    -7   -10   -13   -15   -18   -20   -23   -25   -27   -29   -31   -33   -34   -35   -37   -37   -38   -39   -39   -39    32    32    32    32    31    30    29    28    27    26    24    22    21    19    17    15    13    10     8     6     4     1    -1    -4    -6    -8   -10   -13   -15   -17   -19   -21   -22   -24   -26   -27   -28   -29   -30   -31   -32   -32   -32   -32    25    25    25    25    24    24    23    22    21    20    19    18    16    15    13    12    10     8     6     5     3     1    -1    -3    -5    -6    -8   -10   -12   -13   -15   -16   -18   -19   -20   -21   -22   -23   -24   -24   -25   -25   -25   -25    18    18    18    18    17    17    16    16    15    14    14    13    12    11     9     8     7     6     5     3     2     1    -1    -2    -3    -5    -6    -7    -8    -9   -11   -12   -13   -14   -14   -15   -16   -16   -17   -17   -18   -18   -18   -18    11    11    11    11    10    10    10    10     9     9     8     8     7     6     6     5     4     4     3     2     1     0    -0    -1    -2    -3    -4    -4    -5    -6    -6    -7    -8    -8    -9    -9   -10   -10   -10   -10   -11   -11   -11   -11     4     4     4     4     3     3     3     3     3     3     3     3     2     2     2     2     1     1     1     1     0     0    -0    -0    -1    -1    -1    -1    -2    -2    -2    -2    -3    -3    -3    -3    -3    -3    -3    -3    -4    -4    -4    -4    -4    -4    -4    -4    -3    -3    -3    -3    -3    -3    -3    -3    -2    -2    -2    -2    -1    -1    -1    -1    -0    -0     0     0     1     1     1     1     2     2     2     2     3     3     3     3     3     3     3     3     4     4     4     4   -11   -11   -11   -11   -10   -10   -10   -10    -9    -9    -8    -8    -7    -6    -6    -5    -4    -4    -3    -2    -1    -0     0     1     2     3     4     4     5     6     6     7     8     8     9     9    10    10    10    10    11    11    11    11   -18   -18   -18   -18   -17   -17   -16   -16   -15   -14   -14   -13   -12   -11    -9    -8    -7    -6    -5    -3    -2    -1     1     2     3     5     6     7     8     9    11    12    13    14    14    15    16    16    17    17    18    18    18    18   -25   -25   -25   -25   -24   -24   -23   -22   -21   -20   -19   -18   -16   -15   -13   -12   -10    -8    -6    -5    -3    -1     1     3     5     6     8    10    12    13    15    16    18    19    20    21    22    23    24    24    25    25    25    25   -32   -32   -32   -32   -31   -30   -29   -28   -27   -26   -24   -22   -21   -19   -17   -15   -13   -10    -8    -6    -4    -1     1     4     6     8    10    13    15    17    19    21    22    24    26    27    28    29    30    31    32    32    32    32   -39   -39   -39   -38   -37   -37   -35   -34   -33   -31   -29   -27   -25   -23   -20   -18   -15   -13   -10    -7    -4    -1     1     4     7    10    13    15    18    20    23    25    27    29    31    33    34    35    37    37    38    39    39    39   -46   -46   -45   -45   -44   -43   -41   -40   -38   -36   -34   -32   -29   -27   -24   -21   -18   -15   -12    -8    -5    -2     2     5     8    12    15    18    21    24    27    29    32    34    36    38    40    41    43    44    45    45    46    46   -52   -52   -52   -51   -50   -49   -47   -45   -43   -41   -39   -36   -33   -30   -27   -24   -20   -17   -13    -9    -6    -2     2     6     9    13    17    20    24    27    30    33    36    39    41    43    45    47    49    50    51    52    52    52   -58   -58   -58   -57   -56   -54   -53   -51   -49   -46   -43   -40   -37   -34   -30   -27   -23   -19   -15   -11    -6    -2     2     6    11    15    19    23    27    30    34    37    40    43    46    49    51    53    54    56    57    58    58    58   -64   -64   -63   -62   -61   -60   -58   -56   -53   -51   -48   -44   -41   -37   -33   -29   -25   -21   -16   -12    -7    -2     2     7    12    16    21    25    29    33    37    41    44    48    51    53    56    58    60    61    62    63    64    64   -69   -69   -69   -68   -66   -65   -63   -61   -58   -55   -52   -48   -44   -40   -36   -32   -27   -22   -18   -13    -8    -3     3     8    13    18    22    27    32    36    40    44    48    52    55    58    61    63    65    66    68    69    69    69   -74   -74   -74   -73   -71   -70   -67   -65   -62   -59   -55   -52   -48   -43   -39   -34   -29   -24   -19   -14    -8    -3     3     8    14    19    24    29    34    39    43    48    52    55    59    62    65    67    70    71    73    74    74    74   -79   -79   -78   -77   -76   -74   -72   -69   -66   -63   -59   -55   -51   -46   -41   -36   -31   -26   -20   -14    -9    -3     3     9    14    20    26    31    36    41    46    51    55    59    63    66    69    72    74    76    77    78    79    79   -83   -83   -83   -81   -80   -78   -76   -73   -70   -66   -62   -58   -53   -49   -43   -38   -33   -27   -21   -15    -9    -3     3     9    15    21    27    33    38    43    49    53    58    62    66    70    73    76    78    80    81    83    83    83   -87   -87   -86   -85   -84   -81   -79   -76   -73   -69   -65   -61   -56   -51   -45   -40   -34   -28   -22   -16   -10    -3     3    10    16    22    28    34    40    45    51    56    61    65    69    73    76    79    81    84    85    86    87    87   -91   -90   -90   -88   -87   -85   -82   -79   -76   -72   -67   -63   -58   -53   -47   -41   -35   -29   -23   -16   -10    -3     3    10    16    23    29    35    41    47    53    58    63    67    72    76    79    82    85    87    88    90    90    91   -93   -93   -92   -91   -89   -87   -85   -81   -78   -74   -70   -65   -60   -54   -49   -43   -37   -30   -24   -17   -10    -3     3    10    17    24    30    37    43    49    54    60    65    70    74    78    81    85    87    89    91    92    93    93   -96   -96   -95   -93   -92   -89   -87   -84   -80   -76   -71   -66   -61   -56   -50   -44   -37   -31   -24   -17   -10    -3     3    10    17    24    31    37    44    50    56    61    66    71    76    80    84    87    89    92    93    95    96    96   -98   -97   -97   -95   -93   -91   -88   -85   -81   -77   -73   -68   -62   -57   -51   -45   -38   -32   -25   -18   -11    -4     4    11    18    25    32    38    45    51    57    62    68    73    77    81    85    88    91    93    95    97    97    98   -99   -99   -98   -97   -95   -92   -90   -86   -83   -78   -74   -69   -63   -58   -52   -45   -39   -32   -25   -18   -11    -4     4    11    18    25    32    39    45    52    58    63    69    74    78    83    86    90    92    95    97    98    99    99  -100   -99   -99   -97   -96   -93   -90   -87   -83   -79   -74   -69   -64   -58   -52   -46   -39   -32   -25   -18   -11    -4     4    11    18    25    32    39    46    52    58    64    69    74    79    83    87    90    93    96    97    99    99   100  -100  -100   -99   -98   -96   -93   -91   -87   -83   -79   -74   -69   -64   -58   -52   -46   -39   -32   -25   -18   -11    -4     4    11    18    25    32    39    46    52    58    64    69    74    79    83    87    91    93    96    98    99   100   100
