# vtk DataFile Version 2.0
Volume example
ASCII
DATASET STRUCTURED_POINTS
DIMENSIONS 18 18 1
ASPECT_RATIO 1 1 1
ORIGIN 0 0 0
POINT_DATA 324
SCALARS volume_scalars char 1
LOOKUP_TABLE default
100    98    93    85    74    60    45    27     9    -9   -27   -45   -60   -74   -85   -93   -98  -100    98    97    92    84    73    59    44    27     9    -9   -27   -44   -59   -73   -84   -92   -97   -98    93    92    87    79    69    56    42    26     9    -9   -26   -42   -56   -69   -79   -87   -92   -93    85    84    79    72    63    51    38    23     8    -8   -23   -38   -51   -63   -72   -79   -84   -85    74    73    69    63    55    45    33    20     7    -7   -20   -33   -45   -55   -63   -69   -73   -74    60    59    56    51    45    36    27    16     6    -6   -16   -27   -36   -45   -51   -56   -59   -60    45    44    42    38    33    27    20    12     4    -4   -12   -20   -27   -33   -38   -42   -44   -45    27    27    26    23    20    16    12     7     3    -3    -7   -12   -16   -20   -23   -26   -27   -27     9     9     9     8     7     6     4     3     1    -1    -3    -4    -6    -7    -8    -9    -9    -9    -9    -9    -9    -8    -7    -6    -4    -3    -1     1     3     4     6     7     8     9     9     9   -27   -27   -26   -23   -20   -16   -12    -7    -3     3     7    12    16    20    23    26    27    27   -45   -44   -42   -38   -33   -27   -20   -12    -4     4    12    20    27    33    38    42    44    45   -60   -59   -56   -51   -45   -36   -27   -16    -6     6    16    27    36    45    51    56    59    60   -74   -73   -69   -63   -55   -45   -33   -20    -7     7    20    33    45    55    63    69    73    74   -85   -84   -79   -72   -63   -51   -38   -23    -8     8    23    38    51    63    72    79    84    85   -93   -92   -87   -79   -69   -56   -42   -26    -9     9    26    42    56    69    79    87    92    93   -98   -97   -92   -84   -73   -59   -44   -27    -9     9    27    44    59    73    84    92    97    98  -100   -98   -93   -85   -74   -60   -45   -27    -9     9    27    45    60    74    85    93    98   100
