# vtk DataFile Version 2.0
Volume example
ASCII
DATASET STRUCTURED_POINTS
DIMENSIONS 56 56 1
ASPECT_RATIO 1 1 1
ORIGIN 0 0 0
POINT_DATA 3136
SCALARS volume_scalars char 1
LOOKUP_TABLE default
100   100    99    99    97    96    94    92    90    87    84    81    77    74    70    65    61    56    52    47    42    36    31    25    20    14     9     3    -3    -9   -14   -20   -25   -31   -36   -42   -47   -52   -56   -61   -65   -70   -74   -77   -81   -84   -87   -90   -92   -94   -96   -97   -99   -99  -100  -100   100   100    99    98    97    96    94    92    90    87    84    81    77    74    70    65    61    56    52    47    41    36    31    25    20    14     9     3    -3    -9   -14   -20   -25   -31   -36   -41   -47   -52   -56   -61   -65   -70   -74   -77   -81   -84   -87   -90   -92   -94   -96   -97   -98   -99  -100  -100    99    99    99    98    97    95    94    92    89    87    84    80    77    73    69    65    61    56    51    46    41    36    31    25    20    14     9     3    -3    -9   -14   -20   -25   -31   -36   -41   -46   -51   -56   -61   -65   -69   -73   -77   -80   -84   -87   -89   -92   -94   -95   -97   -98   -99   -99   -99    99    98    98    97    96    95    93    91    88    86    83    80    76    73    69    65    60    56    51    46    41    36    30    25    20    14     8     3    -3    -8   -14   -20   -25   -30   -36   -41   -46   -51   -56   -60   -65   -69   -73   -76   -80   -83   -86   -88   -91   -93   -95   -96   -97   -98   -98   -99    97    97    97    96    95    93    92    90    87    85    82    79    75    72    68    64    59    55    50    45    40    35    30    25    19    14     8     3    -3    -8   -14   -19   -25   -30   -35   -40   -45   -50   -55   -59   -64   -68   -72   -75   -79   -82   -85   -87   -90   -92   -93   -95   -96   -97   -97   -97    96    96    95    95    93    92    90    88    86    84    81    78    74    71    67    63    59    54    50    45    40    35    30    24    19    14     8     3    -3    -8   -14   -19   -24   -30   -35   -40   -45   -50   -54   -59   -63   -67   -71   -74   -78   -81   -84   -86   -88   -90   -92   -93   -95   -95   -96   -96    94    94    94    93    92    90    89    87    85    82    79    76    73    69    66    62    58    53    49    44    39    34    29    24    19    13     8     3    -3    -8   -13   -19   -24   -29   -34   -39   -44   -49   -53   -58   -62   -66   -69   -73   -76   -79   -82   -85   -87   -89   -90   -92   -93   -94   -94   -94    92    92    92    91    90    88    87    85    83    80    77    75    71    68    64    60    56    52    48    43    38    33    28    23    18    13     8     3    -3    -8   -13   -18   -23   -28   -33   -38   -43   -48   -52   -56   -60   -64   -68   -71   -75   -77   -80   -83   -85   -87   -88   -90   -91   -92   -92   -92    90    90    89    88    87    86    85    83    81    78    75    73    69    66    63    59    55    51    46    42    37    33    28    23    18    13     8     3    -3    -8   -13   -18   -23   -28   -33   -37   -42   -46   -51   -55   -59   -63   -66   -69   -73   -75   -78   -81   -83   -85   -86   -87   -88   -89   -90   -90    87    87    87    86    85    84    82    80    78    76    73    70    67    64    61    57    53    49    45    41    36    32    27    22    17    12     7     2    -2    -7   -12   -17   -22   -27   -32   -36   -41   -45   -49   -53   -57   -61   -64   -67   -70   -73   -76   -78   -80   -82   -84   -85   -86   -87   -87   -87    84    84    84    83    82    81    79    77    75    73    71    68    65    62    59    55    51    47    43    39    35    31    26    21    17    12     7     2    -2    -7   -12   -17   -21   -26   -31   -35   -39   -43   -47   -51   -55   -59   -62   -65   -68   -71   -73   -75   -77   -79   -81   -82   -83   -84   -84   -84    81    81    80    80    79    78    76    75    73    70    68    65    63    60    56    53    49    46    42    38    34    29    25    21    16    12     7     2    -2    -7   -12   -16   -21   -25   -29   -34   -38   -42   -46   -49   -53   -56   -60   -63   -65   -68   -70   -73   -75   -76   -78   -79   -80   -80   -81   -81    77    77    77    76    75    74    73    71    69    67    65    63    60    57    54    51    47    44    40    36    32    28    24    20    15    11     7     2    -2    -7   -11   -15   -20   -24   -28   -32   -36   -40   -44   -47   -51   -54   -57   -60   -63   -65   -67   -69   -71   -73   -74   -75   -76   -77   -77   -77    74    74    73    73    72    71    69    68    66    64    62    60    57    54    51    48    45    42    38    34    31    27    23    19    15    10     6     2    -2    -6   -10   -15   -19   -23   -27   -31   -34   -38   -42   -45   -48   -51   -54   -57   -60   -62   -64   -66   -68   -69   -71   -72   -73   -73   -74   -74    70    70    69    69    68    67    66    64    63    61    59    56    54    51    49    46    43    39    36    33    29    25    22    18    14    10     6     2    -2    -6   -10   -14   -18   -22   -25   -29   -33   -36   -39   -43   -46   -49   -51   -54   -56   -59   -61   -63   -64   -66   -67   -68   -69   -69   -70   -70    65    65    65    65    64    63    62    60    59    57    55    53    51    48    46    43    40    37    34    31    27    24    20    17    13     9     6     2    -2    -6    -9   -13   -17   -20   -24   -27   -31   -34   -37   -40   -43   -46   -48   -51   -53   -55   -57   -59   -60   -62   -63   -64   -65   -65   -65   -65    61    61    61    60    59    59    58    56    55    53    51    49    47    45    43    40    37    34    32    28    25    22    19    16    12     9     5     2    -2    -5    -9   -12   -16   -19   -22   -25   -28   -32   -34   -37   -40   -43   -45   -47   -49   -51   -53   -55   -56   -58   -59   -59   -60   -61   -61   -61    56    56    56    56    55    54    53    52    51    49    47    46    44    42    39    37    34    32    29    26    23    20    17    14    11     8     5     2    -2    -5    -8   -11   -14   -17   -20   -23   -26   -29   -32   -34   -37   -39   -42   -44   -46   -47   -49   -51   -52   -53   -54   -55   -56   -56   -56   -56    52    52    51    51    50    50    49    48    46    45    43    42    40    38    36    34    32    29    27    24    21    19    16    13    10     7     4     1    -1    -4    -7   -10   -13   -16   -19   -21   -24   -27   -29   -32   -34   -36   -38   -40   -42   -43   -45   -46   -48   -49   -50   -50   -51   -51   -52   -52    47    47    46    46    45    45    44    43    42    41    39    38    36    34    33    31    28    26    24    22    19    17    14    12     9     7     4     1    -1    -4    -7    -9   -12   -14   -17   -19   -22   -24   -26   -28   -31   -33   -34   -36   -38   -39   -41   -42   -43   -44   -45   -45   -46   -46   -47   -47    42    41    41    41    40    40    39    38    37    36    35    34    32    31    29    27    25    23    21    19    17    15    13    11     8     6     4     1    -1    -4    -6    -8   -11   -13   -15   -17   -19   -21   -23   -25   -27   -29   -31   -32   -34   -35   -36   -37   -38   -39   -40   -40   -41   -41   -41   -42    36    36    36    36    35    35    34    33    33    32    31    29    28    27    25    24    22    20    19    17    15    13    11     9     7     5     3     1    -1    -3    -5    -7    -9   -11   -13   -15   -17   -19   -20   -22   -24   -25   -27   -28   -29   -31   -32   -33   -33   -34   -35   -35   -36   -36   -36   -36    31    31    31    30    30    30    29    28    28    27    26    25    24    23    22    20    19    17    16    14    13    11    10     8     6     4     3     1    -1    -3    -4    -6    -8   -10   -11   -13   -14   -16   -17   -19   -20   -22   -23   -24   -25   -26   -27   -28   -28   -29   -30   -30   -30   -31   -31   -31    25    25    25    25    25    24    24    23    23    22    21    21    20    19    18    17    16    14    13    12    11     9     8     6     5     4     2     1    -1    -2    -4    -5    -6    -8    -9   -11   -12   -13   -14   -16   -17   -18   -19   -20   -21   -21   -22   -23   -23   -24   -24   -25   -25   -25   -25   -25    20    20    20    20    19    19    19    18    18    17    17    16    15    15    14    13    12    11    10     9     8     7     6     5     4     3     2     1    -1    -2    -3    -4    -5    -6    -7    -8    -9   -10   -11   -12   -13   -14   -15   -15   -16   -17   -17   -18   -18   -19   -19   -19   -20   -20   -20   -20    14    14    14    14    14    14    13    13    13    12    12    12    11    10    10     9     9     8     7     7     6     5     4     4     3     2     1     0    -0    -1    -2    -3    -4    -4    -5    -6    -7    -7    -8    -9    -9   -10   -10   -11   -12   -12   -12   -13   -13   -13   -14   -14   -14   -14   -14   -14     9     9     9     8     8     8     8     8     8     7     7     7     7     6     6     6     5     5     4     4     4     3     3     2     2     1     1     0    -0    -1    -1    -2    -2    -3    -3    -4    -4    -4    -5    -5    -6    -6    -6    -7    -7    -7    -7    -8    -8    -8    -8    -8    -8    -9    -9    -9     3     3     3     3     3     3     3     3     3     2     2     2     2     2     2     2     2     2     1     1     1     1     1     1     1     0     0     0    -0    -0    -0    -1    -1    -1    -1    -1    -1    -1    -2    -2    -2    -2    -2    -2    -2    -2    -2    -3    -3    -3    -3    -3    -3    -3    -3    -3    -3    -3    -3    -3    -3    -3    -3    -3    -3    -2    -2    -2    -2    -2    -2    -2    -2    -2    -1    -1    -1    -1    -1    -1    -1    -0    -0    -0     0     0     0     1     1     1     1     1     1     1     2     2     2     2     2     2     2     2     2     3     3     3     3     3     3     3     3     3    -9    -9    -9    -8    -8    -8    -8    -8    -8    -7    -7    -7    -7    -6    -6    -6    -5    -5    -4    -4    -4    -3    -3    -2    -2    -1    -1    -0     0     1     1     2     2     3     3     4     4     4     5     5     6     6     6     7     7     7     7     8     8     8     8     8     8     9     9     9   -14   -14   -14   -14   -14   -14   -13   -13   -13   -12   -12   -12   -11   -10   -10    -9    -9    -8    -7    -7    -6    -5    -4    -4    -3    -2    -1    -0     0     1     2     3     4     4     5     6     7     7     8     9     9    10    10    11    12    12    12    13    13    13    14    14    14    14    14    14   -20   -20   -20   -20   -19   -19   -19   -18   -18   -17   -17   -16   -15   -15   -14   -13   -12   -11   -10    -9    -8    -7    -6    -5    -4    -3    -2    -1     1     2     3     4     5     6     7     8     9    10    11    12    13    14    15    15    16    17    17    18    18    19    19    19    20    20    20    20   -25   -25   -25   -25   -25   -24   -24   -23   -23   -22   -21   -21   -20   -19   -18   -17   -16   -14   -13   -12   -11    -9    -8    -6    -5    -4    -2    -1     1     2     4     5     6     8     9    11    12    13    14    16    17    18    19    20    21    21    22    23    23    24    24    25    25    25    25    25   -31   -31   -31   -30   -30   -30   -29   -28   -28   -27   -26   -25   -24   -23   -22   -20   -19   -17   -16   -14   -13   -11   -10    -8    -6    -4    -3    -1     1     3     4     6     8    10    11    13    14    16    17    19    20    22    23    24    25    26    27    28    28    29    30    30    30    31    31    31   -36   -36   -36   -36   -35   -35   -34   -33   -33   -32   -31   -29   -28   -27   -25   -24   -22   -20   -19   -17   -15   -13   -11    -9    -7    -5    -3    -1     1     3     5     7     9    11    13    15    17    19    20    22    24    25    27    28    29    31    32    33    33    34    35    35    36    36    36    36   -42   -41   -41   -41   -40   -40   -39   -38   -37   -36   -35   -34   -32   -31   -29   -27   -25   -23   -21   -19   -17   -15   -13   -11    -8    -6    -4    -1     1     4     6     8    11    13    15    17    19    21    23    25    27    29    31    32    34    35    36    37    38    39    40    40    41    41    41    42   -47   -47   -46   -46   -45   -45   -44   -43   -42   -41   -39   -38   -36   -34   -33   -31   -28   -26   -24   -22   -19   -17   -14   -12    -9    -7    -4    -1     1     4     7     9    12    14    17    19    22    24    26    28    31    33    34    36    38    39    41    42    43    44    45    45    46    46    47    47   -52   -52   -51   -51   -50   -50   -49   -48   -46   -45   -43   -42   -40   -38   -36   -34   -32   -29   -27   -24   -21   -19   -16   -13   -10    -7    -4    -1     1     4     7    10    13    16    19    21    24    27    29    32    34    36    38    40    42    43    45    46    48    49    50    50    51    51    52    52   -56   -56   -56   -56   -55   -54   -53   -52   -51   -49   -47   -46   -44   -42   -39   -37   -34   -32   -29   -26   -23   -20   -17   -14   -11    -8    -5    -2     2     5     8    11    14    17    20    23    26    29    32    34    37    39    42    44    46    47    49    51    52    53    54    55    56    56    56    56   -61   -61   -61   -60   -59   -59   -58   -56   -55   -53   -51   -49   -47   -45   -43   -40   -37   -34   -32   -28   -25   -22   -19   -16   -12    -9    -5    -2     2     5     9    12    16    19    22    25    28    32    34    37    40    43    45    47    49    51    53    55    56    58    59    59    60    61    61    61   -65   -65   -65   -65   -64   -63   -62   -60   -59   -57   -55   -53   -51   -48   -46   -43   -40   -37   -34   -31   -27   -24   -20   -17   -13    -9    -6    -2     2     6     9    13    17    20    24    27    31    34    37    40    43    46    48    51    53    55    57    59    60    62    63    64    65    65    65    65   -70   -70   -69   -69   -68   -67   -66   -64   -63   -61   -59   -56   -54   -51   -49   -46   -43   -39   -36   -33   -29   -25   -22   -18   -14   -10    -6    -2     2     6    10    14    18    22    25    29    33    36    39    43    46    49    51    54    56    59    61    63    64    66    67    68    69    69    70    70   -74   -74   -73   -73   -72   -71   -69   -68   -66   -64   -62   -60   -57   -54   -51   -48   -45   -42   -38   -34   -31   -27   -23   -19   -15   -10    -6    -2     2     6    10    15    19    23    27    31    34    38    42    45    48    51    54    57    60    62    64    66    68    69    71    72    73    73    74    74   -77   -77   -77   -76   -75   -74   -73   -71   -69   -67   -65   -63   -60   -57   -54   -51   -47   -44   -40   -36   -32   -28   -24   -20   -15   -11    -7    -2     2     7    11    15    20    24    28    32    36    40    44    47    51    54    57    60    63    65    67    69    71    73    74    75    76    77    77    77   -81   -81   -80   -80   -79   -78   -76   -75   -73   -70   -68   -65   -63   -60   -56   -53   -49   -46   -42   -38   -34   -29   -25   -21   -16   -12    -7    -2     2     7    12    16    21    25    29    34    38    42    46    49    53    56    60    63    65    68    70    73    75    76    78    79    80    80    81    81   -84   -84   -84   -83   -82   -81   -79   -77   -75   -73   -71   -68   -65   -62   -59   -55   -51   -47   -43   -39   -35   -31   -26   -21   -17   -12    -7    -2     2     7    12    17    21    26    31    35    39    43    47    51    55    59    62    65    68    71    73    75    77    79    81    82    83    84    84    84   -87   -87   -87   -86   -85   -84   -82   -80   -78   -76   -73   -70   -67   -64   -61   -57   -53   -49   -45   -41   -36   -32   -27   -22   -17   -12    -7    -2     2     7    12    17    22    27    32    36    41    45    49    53    57    61    64    67    70    73    76    78    80    82    84    85    86    87    87    87   -90   -90   -89   -88   -87   -86   -85   -83   -81   -78   -75   -73   -69   -66   -63   -59   -55   -51   -46   -42   -37   -33   -28   -23   -18   -13    -8    -3     3     8    13    18    23    28    33    37    42    46    51    55    59    63    66    69    73    75    78    81    83    85    86    87    88    89    90    90   -92   -92   -92   -91   -90   -88   -87   -85   -83   -80   -77   -75   -71   -68   -64   -60   -56   -52   -48   -43   -38   -33   -28   -23   -18   -13    -8    -3     3     8    13    18    23    28    33    38    43    48    52    56    60    64    68    71    75    77    80    83    85    87    88    90    91    92    92    92   -94   -94   -94   -93   -92   -90   -89   -87   -85   -82   -79   -76   -73   -69   -66   -62   -58   -53   -49   -44   -39   -34   -29   -24   -19   -13    -8    -3     3     8    13    19    24    29    34    39    44    49    53    58    62    66    69    73    76    79    82    85    87    89    90    92    93    94    94    94   -96   -96   -95   -95   -93   -92   -90   -88   -86   -84   -81   -78   -74   -71   -67   -63   -59   -54   -50   -45   -40   -35   -30   -24   -19   -14    -8    -3     3     8    14    19    24    30    35    40    45    50    54    59    63    67    71    74    78    81    84    86    88    90    92    93    95    95    96    96   -97   -97   -97   -96   -95   -93   -92   -90   -87   -85   -82   -79   -75   -72   -68   -64   -59   -55   -50   -45   -40   -35   -30   -25   -19   -14    -8    -3     3     8    14    19    25    30    35    40    45    50    55    59    64    68    72    75    79    82    85    87    90    92    93    95    96    97    97    97   -99   -98   -98   -97   -96   -95   -93   -91   -88   -86   -83   -80   -76   -73   -69   -65   -60   -56   -51   -46   -41   -36   -30   -25   -20   -14    -8    -3     3     8    14    20    25    30    36    41    46    51    56    60    65    69    73    76    80    83    86    88    91    93    95    96    97    98    98    99   -99   -99   -99   -98   -97   -95   -94   -92   -89   -87   -84   -80   -77   -73   -69   -65   -61   -56   -51   -46   -41   -36   -31   -25   -20   -14    -9    -3     3     9    14    20    25    31    36    41    46    51    56    61    65    69    73    77    80    84    87    89    92    94    95    97    98    99    99    99  -100  -100   -99   -98   -97   -96   -94   -92   -90   -87   -84   -81   -77   -74   -70   -65   -61   -56   -52   -47   -41   -36   -31   -25   -20   -14    -9    -3     3     9    14    20    25    31    36    41    47    52    56    61    65    70    74    77    81    84    87    90    92    94    96    97    98    99   100   100  -100  -100   -99   -99   -97   -96   -94   -92   -90   -87   -84   -81   -77   -74   -70   -65   -61   -56   -52   -47   -42   -36   -31   -25   -20   -14    -9    -3     3     9    14    20    25    31    36    42    47    52    56    61    65    70    74    77    81    84    87    90    92    94    96    97    99    99   100   100
