# vtk DataFile Version 2.0
Volume example
ASCII
DATASET STRUCTURED_POINTS
DIMENSIONS 13 13 1
ASPECT_RATIO 1 1 1
ORIGIN 0 0 0
POINT_DATA 169
SCALARS volume_scalars char 1
LOOKUP_TABLE default
100    97    87    71    50    26    -0   -26   -50   -71   -87   -97  -100    97    93    84    68    48    25    -0   -25   -48   -68   -84   -93   -97    87    84    75    61    43    22    -0   -22   -43   -61   -75   -84   -87    71    68    61    50    35    18    -0   -18   -35   -50   -61   -68   -71    50    48    43    35    25    13    -0   -13   -25   -35   -43   -48   -50    26    25    22    18    13     7    -0    -7   -13   -18   -22   -25   -26     0     0     0    -0    -0    -0    -0    -0    -0    -0    -0    -0    -0   -26   -25   -22   -18   -13    -7    -0     7    13    18    22    25    26   -50   -48   -43   -35   -25   -13    -0    13    25    35    43    48    50   -71   -68   -61   -50   -35   -18    -0    18    35    50    61    68    71   -87   -84   -75   -61   -43   -22    -0    22    43    61    75    84    87   -97   -93   -84   -68   -48   -25    -0    25    48    68    84    93    97  -100   -97   -87   -71   -50   -26    -0    26    50    71    87    97   100
