# vtk DataFile Version 2.0
Volume example
ASCII
DATASET STRUCTURED_POINTS
DIMENSIONS 4 4 1
ASPECT_RATIO 1 1 1
ORIGIN 0 0 0
POINT_DATA 16
SCALARS volume_scalars char 1
LOOKUP_TABLE default
100    50   -50  -100    50    25   -25   -50   -50   -25    25    50  -100   -50    50   100
