# vtk DataFile Version 2.0
Volume example
ASCII
DATASET STRUCTURED_POINTS
DIMENSIONS 41 41 1
ASPECT_RATIO 1 1 1
ORIGIN 0 0 0
POINT_DATA 1681
SCALARS volume_scalars char 1
LOOKUP_TABLE default
100   100    99    97    95    92    89    85    81    76    71    65    59    52    45    38    31    23    16     8    -0    -8   -16   -23   -31   -38   -45   -52   -59   -65   -71   -76   -81   -85   -89   -92   -95   -97   -99  -100  -100   100    99    98    97    95    92    89    85    81    76    70    65    59    52    45    38    31    23    16     8    -0    -8   -16   -23   -31   -38   -45   -52   -59   -65   -70   -76   -81   -85   -89   -92   -95   -97   -98   -99  -100    99    98    98    96    94    91    88    84    80    75    70    64    58    52    45    38    31    23    15     8    -0    -8   -15   -23   -31   -38   -45   -52   -58   -64   -70   -75   -80   -84   -88   -91   -94   -96   -98   -98   -99    97    97    96    95    92    90    87    83    79    74    69    63    57    51    44    37    30    23    15     8     0    -8   -15   -23   -30   -37   -44   -51   -57   -63   -69   -74   -79   -83   -87   -90   -92   -95   -96   -97   -97    95    95    94    92    90    88    85    81    77    72    67    62    56    50    43    36    29    22    15     7    -0    -7   -15   -22   -29   -36   -43   -50   -56   -62   -67   -72   -77   -81   -85   -88   -90   -92   -94   -95   -95    92    92    91    90    88    85    82    79    75    70    65    60    54    48    42    35    29    22    14     7     0    -7   -14   -22   -29   -35   -42   -48   -54   -60   -65   -70   -75   -79   -82   -85   -88   -90   -91   -92   -92    89    89    88    87    85    82    79    76    72    68    63    58    52    47    40    34    28    21    14     7     0    -7   -14   -21   -28   -34   -40   -47   -52   -58   -63   -68   -72   -76   -79   -82   -85   -87   -88   -89   -89    85    85    84    83    81    79    76    73    69    65    60    55    50    45    39    33    26    20    13     7     0    -7   -13   -20   -26   -33   -39   -45   -50   -55   -60   -65   -69   -73   -76   -79   -81   -83   -84   -85   -85    81    81    80    79    77    75    72    69    65    62    57    53    48    42    37    31    25    19    13     6     0    -6   -13   -19   -25   -31   -37   -42   -48   -53   -57   -62   -65   -69   -72   -75   -77   -79   -80   -81   -81    76    76    75    74    72    70    68    65    62    58    54    49    45    40    35    29    23    18    12     6     0    -6   -12   -18   -23   -29   -35   -40   -45   -49   -54   -58   -62   -65   -68   -70   -72   -74   -75   -76   -76    71    70    70    69    67    65    63    60    57    54    50    46    42    37    32    27    22    17    11     6     0    -6   -11   -17   -22   -27   -32   -37   -42   -46   -50   -54   -57   -60   -63   -65   -67   -69   -70   -70   -71    65    65    64    63    62    60    58    55    53    49    46    42    38    34    29    25    20    15    10     5     0    -5   -10   -15   -20   -25   -29   -34   -38   -42   -46   -49   -53   -55   -58   -60   -62   -63   -64   -65   -65    59    59    58    57    56    54    52    50    48    45    42    38    35    31    27    22    18    14     9     5     0    -5    -9   -14   -18   -22   -27   -31   -35   -38   -42   -45   -48   -50   -52   -54   -56   -57   -58   -59   -59    52    52    52    51    50    48    47    45    42    40    37    34    31    27    24    20    16    12     8     4     0    -4    -8   -12   -16   -20   -24   -27   -31   -34   -37   -40   -42   -45   -47   -48   -50   -51   -52   -52   -52    45    45    45    44    43    42    40    39    37    35    32    29    27    24    21    17    14    11     7     4     0    -4    -7   -11   -14   -17   -21   -24   -27   -29   -32   -35   -37   -39   -40   -42   -43   -44   -45   -45   -45    38    38    38    37    36    35    34    33    31    29    27    25    22    20    17    15    12     9     6     3     0    -3    -6    -9   -12   -15   -17   -20   -22   -25   -27   -29   -31   -33   -34   -35   -36   -37   -38   -38   -38    31    31    31    30    29    29    28    26    25    23    22    20    18    16    14    12    10     7     5     2     0    -2    -5    -7   -10   -12   -14   -16   -18   -20   -22   -23   -25   -26   -28   -29   -29   -30   -31   -31   -31    23    23    23    23    22    22    21    20    19    18    17    15    14    12    11     9     7     5     4     2     0    -2    -4    -5    -7    -9   -11   -12   -14   -15   -17   -18   -19   -20   -21   -22   -22   -23   -23   -23   -23    16    16    15    15    15    14    14    13    13    12    11    10     9     8     7     6     5     4     2     1     0    -1    -2    -4    -5    -6    -7    -8    -9   -10   -11   -12   -13   -13   -14   -14   -15   -15   -15   -16   -16     8     8     8     8     7     7     7     7     6     6     6     5     5     4     4     3     2     2     1     1    -0    -1    -1    -2    -2    -3    -4    -4    -5    -5    -6    -6    -6    -7    -7    -7    -7    -8    -8    -8    -8    -0    -0    -0     0     0     0     0     0     0    -0    -0    -0     0    -0     0    -0    -0    -0    -0    -0    -0    -0    -0    -0    -0    -0    -0    -0    -0    -0    -0    -0     0     0     0     0     0     0     0     0     0    -8    -8    -8    -8    -7    -7    -7    -7    -6    -6    -6    -5    -5    -4    -4    -3    -2    -2    -1    -1    -0     1     1     2     2     3     4     4     5     5     6     6     6     7     7     7     7     8     8     8     8   -16   -16   -15   -15   -15   -14   -14   -13   -13   -12   -11   -10    -9    -8    -7    -6    -5    -4    -2    -1    -0     1     2     4     5     6     7     8     9    10    11    12    13    13    14    14    15    15    15    16    16   -23   -23   -23   -23   -22   -22   -21   -20   -19   -18   -17   -15   -14   -12   -11    -9    -7    -5    -4    -2    -0     2     4     5     7     9    11    12    14    15    17    18    19    20    21    22    22    23    23    23    23   -31   -31   -31   -30   -29   -29   -28   -26   -25   -23   -22   -20   -18   -16   -14   -12   -10    -7    -5    -2    -0     2     5     7    10    12    14    16    18    20    22    23    25    26    28    29    29    30    31    31    31   -38   -38   -38   -37   -36   -35   -34   -33   -31   -29   -27   -25   -22   -20   -17   -15   -12    -9    -6    -3    -0     3     6     9    12    15    17    20    22    25    27    29    31    33    34    35    36    37    38    38    38   -45   -45   -45   -44   -43   -42   -40   -39   -37   -35   -32   -29   -27   -24   -21   -17   -14   -11    -7    -4    -0     4     7    11    14    17    21    24    27    29    32    35    37    39    40    42    43    44    45    45    45   -52   -52   -52   -51   -50   -48   -47   -45   -42   -40   -37   -34   -31   -27   -24   -20   -16   -12    -8    -4    -0     4     8    12    16    20    24    27    31    34    37    40    42    45    47    48    50    51    52    52    52   -59   -59   -58   -57   -56   -54   -52   -50   -48   -45   -42   -38   -35   -31   -27   -22   -18   -14    -9    -5    -0     5     9    14    18    22    27    31    35    38    42    45    48    50    52    54    56    57    58    59    59   -65   -65   -64   -63   -62   -60   -58   -55   -53   -49   -46   -42   -38   -34   -29   -25   -20   -15   -10    -5    -0     5    10    15    20    25    29    34    38    42    46    49    53    55    58    60    62    63    64    65    65   -71   -70   -70   -69   -67   -65   -63   -60   -57   -54   -50   -46   -42   -37   -32   -27   -22   -17   -11    -6     0     6    11    17    22    27    32    37    42    46    50    54    57    60    63    65    67    69    70    70    71   -76   -76   -75   -74   -72   -70   -68   -65   -62   -58   -54   -49   -45   -40   -35   -29   -23   -18   -12    -6     0     6    12    18    23    29    35    40    45    49    54    58    62    65    68    70    72    74    75    76    76   -81   -81   -80   -79   -77   -75   -72   -69   -65   -62   -57   -53   -48   -42   -37   -31   -25   -19   -13    -6     0     6    13    19    25    31    37    42    48    53    57    62    65    69    72    75    77    79    80    81    81   -85   -85   -84   -83   -81   -79   -76   -73   -69   -65   -60   -55   -50   -45   -39   -33   -26   -20   -13    -7     0     7    13    20    26    33    39    45    50    55    60    65    69    73    76    79    81    83    84    85    85   -89   -89   -88   -87   -85   -82   -79   -76   -72   -68   -63   -58   -52   -47   -40   -34   -28   -21   -14    -7     0     7    14    21    28    34    40    47    52    58    63    68    72    76    79    82    85    87    88    89    89   -92   -92   -91   -90   -88   -85   -82   -79   -75   -70   -65   -60   -54   -48   -42   -35   -29   -22   -14    -7     0     7    14    22    29    35    42    48    54    60    65    70    75    79    82    85    88    90    91    92    92   -95   -95   -94   -92   -90   -88   -85   -81   -77   -72   -67   -62   -56   -50   -43   -36   -29   -22   -15    -7     0     7    15    22    29    36    43    50    56    62    67    72    77    81    85    88    90    92    94    95    95   -97   -97   -96   -95   -92   -90   -87   -83   -79   -74   -69   -63   -57   -51   -44   -37   -30   -23   -15    -8     0     8    15    23    30    37    44    51    57    63    69    74    79    83    87    90    92    95    96    97    97   -99   -98   -98   -96   -94   -91   -88   -84   -80   -75   -70   -64   -58   -52   -45   -38   -31   -23   -15    -8     0     8    15    23    31    38    45    52    58    64    70    75    80    84    88    91    94    96    98    98    99  -100   -99   -98   -97   -95   -92   -89   -85   -81   -76   -70   -65   -59   -52   -45   -38   -31   -23   -16    -8     0     8    16    23    31    38    45    52    59    65    70    76    81    85    89    92    95    97    98    99   100  -100  -100   -99   -97   -95   -92   -89   -85   -81   -76   -71   -65   -59   -52   -45   -38   -31   -23   -16    -8     0     8    16    23    31    38    45    52    59    65    71    76    81    85    89    92    95    97    99   100   100
