# vtk DataFile Version 2.0
Volume example
ASCII
DATASET STRUCTURED_POINTS
DIMENSIONS 38 38 1
ASPECT_RATIO 1 1 1
ORIGIN 0 0 0
POINT_DATA 1444
SCALARS volume_scalars char 1
LOOKUP_TABLE default
100   100    99    97    94    91    87    83    78    72    66    59    52    45    37    29    21    13     4    -4   -13   -21   -29   -37   -45   -52   -59   -66   -72   -78   -83   -87   -91   -94   -97   -99  -100  -100   100    99    98    96    94    91    87    83    78    72    66    59    52    45    37    29    21    13     4    -4   -13   -21   -29   -37   -45   -52   -59   -66   -72   -78   -83   -87   -91   -94   -96   -98   -99  -100    99    98    97    95    93    90    86    82    77    71    65    59    52    44    37    29    21    13     4    -4   -13   -21   -29   -37   -44   -52   -59   -65   -71   -77   -82   -86   -90   -93   -95   -97   -98   -99    97    96    95    94    91    88    84    80    75    70    64    58    51    44    36    28    20    12     4    -4   -12   -20   -28   -36   -44   -51   -58   -64   -70   -75   -80   -84   -88   -91   -94   -95   -96   -97    94    94    93    91    89    86    82    78    73    68    62    56    49    42    35    28    20    12     4    -4   -12   -20   -28   -35   -42   -49   -56   -62   -68   -73   -78   -82   -86   -89   -91   -93   -94   -94    91    91    90    88    86    83    80    75    71    66    60    54    48    41    34    27    19    12     4    -4   -12   -19   -27   -34   -41   -48   -54   -60   -66   -71   -75   -80   -83   -86   -88   -90   -91   -91    87    87    86    84    82    80    76    72    68    63    58    52    46    39    33    26    18    11     4    -4   -11   -18   -26   -33   -39   -46   -52   -58   -63   -68   -72   -76   -80   -82   -84   -86   -87   -87    83    83    82    80    78    75    72    69    64    60    55    49    43    37    31    24    17    11     4    -4   -11   -17   -24   -31   -37   -43   -49   -55   -60   -64   -69   -72   -75   -78   -80   -82   -83   -83    78    78    77    75    73    71    68    64    61    56    51    46    41    35    29    23    16    10     3    -3   -10   -16   -23   -29   -35   -41   -46   -51   -56   -61   -64   -68   -71   -73   -75   -77   -78   -78    72    72    71    70    68    66    63    60    56    52    48    43    38    33    27    21    15     9     3    -3    -9   -15   -21   -27   -33   -38   -43   -48   -52   -56   -60   -63   -66   -68   -70   -71   -72   -72    66    66    65    64    62    60    58    55    51    48    44    39    35    30    25    19    14     8     3    -3    -8   -14   -19   -25   -30   -35   -39   -44   -48   -51   -55   -58   -60   -62   -64   -65   -66   -66    59    59    59    58    56    54    52    49    46    43    39    35    31    27    22    17    13     8     3    -3    -8   -13   -17   -22   -27   -31   -35   -39   -43   -46   -49   -52   -54   -56   -58   -59   -59   -59    52    52    52    51    49    48    46    43    41    38    35    31    27    24    20    15    11     7     2    -2    -7   -11   -15   -20   -24   -27   -31   -35   -38   -41   -43   -46   -48   -49   -51   -52   -52   -52    45    45    44    44    42    41    39    37    35    33    30    27    24    20    17    13     9     6     2    -2    -6    -9   -13   -17   -20   -24   -27   -30   -33   -35   -37   -39   -41   -42   -44   -44   -45   -45    37    37    37    36    35    34    33    31    29    27    25    22    20    17    14    11     8     5     2    -2    -5    -8   -11   -14   -17   -20   -22   -25   -27   -29   -31   -33   -34   -35   -36   -37   -37   -37    29    29    29    28    28    27    26    24    23    21    19    17    15    13    11     9     6     4     1    -1    -4    -6    -9   -11   -13   -15   -17   -19   -21   -23   -24   -26   -27   -28   -28   -29   -29   -29    21    21    21    20    20    19    18    17    16    15    14    13    11     9     8     6     4     3     1    -1    -3    -4    -6    -8    -9   -11   -13   -14   -15   -16   -17   -18   -19   -20   -20   -21   -21   -21    13    13    13    12    12    12    11    11    10     9     8     8     7     6     5     4     3     2     1    -1    -2    -3    -4    -5    -6    -7    -8    -8    -9   -10   -11   -11   -12   -12   -12   -13   -13   -13     4     4     4     4     4     4     4     4     3     3     3     3     2     2     2     1     1     1     0    -0    -1    -1    -1    -2    -2    -2    -3    -3    -3    -3    -4    -4    -4    -4    -4    -4    -4    -4    -4    -4    -4    -4    -4    -4    -4    -4    -3    -3    -3    -3    -2    -2    -2    -1    -1    -1    -0     0     1     1     1     2     2     2     3     3     3     3     4     4     4     4     4     4     4     4   -13   -13   -13   -12   -12   -12   -11   -11   -10    -9    -8    -8    -7    -6    -5    -4    -3    -2    -1     1     2     3     4     5     6     7     8     8     9    10    11    11    12    12    12    13    13    13   -21   -21   -21   -20   -20   -19   -18   -17   -16   -15   -14   -13   -11    -9    -8    -6    -4    -3    -1     1     3     4     6     8     9    11    13    14    15    16    17    18    19    20    20    21    21    21   -29   -29   -29   -28   -28   -27   -26   -24   -23   -21   -19   -17   -15   -13   -11    -9    -6    -4    -1     1     4     6     9    11    13    15    17    19    21    23    24    26    27    28    28    29    29    29   -37   -37   -37   -36   -35   -34   -33   -31   -29   -27   -25   -22   -20   -17   -14   -11    -8    -5    -2     2     5     8    11    14    17    20    22    25    27    29    31    33    34    35    36    37    37    37   -45   -45   -44   -44   -42   -41   -39   -37   -35   -33   -30   -27   -24   -20   -17   -13    -9    -6    -2     2     6     9    13    17    20    24    27    30    33    35    37    39    41    42    44    44    45    45   -52   -52   -52   -51   -49   -48   -46   -43   -41   -38   -35   -31   -27   -24   -20   -15   -11    -7    -2     2     7    11    15    20    24    27    31    35    38    41    43    46    48    49    51    52    52    52   -59   -59   -59   -58   -56   -54   -52   -49   -46   -43   -39   -35   -31   -27   -22   -17   -13    -8    -3     3     8    13    17    22    27    31    35    39    43    46    49    52    54    56    58    59    59    59   -66   -66   -65   -64   -62   -60   -58   -55   -51   -48   -44   -39   -35   -30   -25   -19   -14    -8    -3     3     8    14    19    25    30    35    39    44    48    51    55    58    60    62    64    65    66    66   -72   -72   -71   -70   -68   -66   -63   -60   -56   -52   -48   -43   -38   -33   -27   -21   -15    -9    -3     3     9    15    21    27    33    38    43    48    52    56    60    63    66    68    70    71    72    72   -78   -78   -77   -75   -73   -71   -68   -64   -61   -56   -51   -46   -41   -35   -29   -23   -16   -10    -3     3    10    16    23    29    35    41    46    51    56    61    64    68    71    73    75    77    78    78   -83   -83   -82   -80   -78   -75   -72   -69   -64   -60   -55   -49   -43   -37   -31   -24   -17   -11    -4     4    11    17    24    31    37    43    49    55    60    64    69    72    75    78    80    82    83    83   -87   -87   -86   -84   -82   -80   -76   -72   -68   -63   -58   -52   -46   -39   -33   -26   -18   -11    -4     4    11    18    26    33    39    46    52    58    63    68    72    76    80    82    84    86    87    87   -91   -91   -90   -88   -86   -83   -80   -75   -71   -66   -60   -54   -48   -41   -34   -27   -19   -12    -4     4    12    19    27    34    41    48    54    60    66    71    75    80    83    86    88    90    91    91   -94   -94   -93   -91   -89   -86   -82   -78   -73   -68   -62   -56   -49   -42   -35   -28   -20   -12    -4     4    12    20    28    35    42    49    56    62    68    73    78    82    86    89    91    93    94    94   -97   -96   -95   -94   -91   -88   -84   -80   -75   -70   -64   -58   -51   -44   -36   -28   -20   -12    -4     4    12    20    28    36    44    51    58    64    70    75    80    84    88    91    94    95    96    97   -99   -98   -97   -95   -93   -90   -86   -82   -77   -71   -65   -59   -52   -44   -37   -29   -21   -13    -4     4    13    21    29    37    44    52    59    65    71    77    82    86    90    93    95    97    98    99  -100   -99   -98   -96   -94   -91   -87   -83   -78   -72   -66   -59   -52   -45   -37   -29   -21   -13    -4     4    13    21    29    37    45    52    59    66    72    78    83    87    91    94    96    98    99   100  -100  -100   -99   -97   -94   -91   -87   -83   -78   -72   -66   -59   -52   -45   -37   -29   -21   -13    -4     4    13    21    29    37    45    52    59    66    72    78    83    87    91    94    97    99   100   100
