# vtk DataFile Version 2.0
Volume example
ASCII
DATASET STRUCTURED_POINTS
DIMENSIONS 49 49 1
ASPECT_RATIO 1 1 1
ORIGIN 0 0 0
POINT_DATA 2401
SCALARS volume_scalars char 1
LOOKUP_TABLE default
100   100    99    98    97    95    92    90    87    83    79    75    71    66    61    56    50    44    38    32    26    20    13     7     0    -7   -13   -20   -26   -32   -38   -44   -50   -56   -61   -66   -71   -75   -79   -83   -87   -90   -92   -95   -97   -98   -99  -100  -100   100   100    99    98    96    94    92    89    86    83    79    75    71    66    61    55    50    44    38    32    26    19    13     7     0    -7   -13   -19   -26   -32   -38   -44   -50   -55   -61   -66   -71   -75   -79   -83   -86   -89   -92   -94   -96   -98   -99  -100  -100    99    99    98    97    96    94    92    89    86    82    79    75    70    65    60    55    50    44    38    32    26    19    13     6     0    -6   -13   -19   -26   -32   -38   -44   -50   -55   -60   -65   -70   -75   -79   -82   -86   -89   -92   -94   -96   -97   -98   -99   -99    98    98    97    96    95    93    91    88    85    82    78    74    69    65    60    54    49    43    38    32    25    19    13     6     0    -6   -13   -19   -25   -32   -38   -43   -49   -54   -60   -65   -69   -74   -78   -82   -85   -88   -91   -93   -95   -96   -97   -98   -98    97    96    96    95    93    91    89    87    84    80    77    73    68    64    59    54    48    43    37    31    25    19    13     6     0    -6   -13   -19   -25   -31   -37   -43   -48   -54   -59   -64   -68   -73   -77   -80   -84   -87   -89   -91   -93   -95   -96   -96   -97    95    94    94    93    91    90    87    85    82    79    75    71    67    62    58    53    47    42    36    30    25    18    12     6     0    -6   -12   -18   -25   -30   -36   -42   -47   -53   -58   -62   -67   -71   -75   -79   -82   -85   -87   -90   -91   -93   -94   -94   -95    92    92    92    91    89    87    85    83    80    77    73    69    65    61    56    51    46    41    35    30    24    18    12     6     0    -6   -12   -18   -24   -30   -35   -41   -46   -51   -56   -61   -65   -69   -73   -77   -80   -83   -85   -87   -89   -91   -92   -92   -92    90    89    89    88    87    85    83    80    78    75    71    67    63    59    55    50    45    40    34    29    23    17    12     6     0    -6   -12   -17   -23   -29   -34   -40   -45   -50   -55   -59   -63   -67   -71   -75   -78   -80   -83   -85   -87   -88   -89   -89   -90    87    86    86    85    84    82    80    78    75    72    69    65    61    57    53    48    43    38    33    28    22    17    11     6     0    -6   -11   -17   -22   -28   -33   -38   -43   -48   -53   -57   -61   -65   -69   -72   -75   -78   -80   -82   -84   -85   -86   -86   -87    83    83    82    82    80    79    77    75    72    69    66    63    59    55    51    46    42    37    32    27    22    16    11     5     0    -5   -11   -16   -22   -27   -32   -37   -42   -46   -51   -55   -59   -63   -66   -69   -72   -75   -77   -79   -80   -82   -82   -83   -83    79    79    79    78    77    75    73    71    69    66    63    60    56    52    48    44    40    35    30    26    21    15    10     5     0    -5   -10   -15   -21   -26   -30   -35   -40   -44   -48   -52   -56   -60   -63   -66   -69   -71   -73   -75   -77   -78   -79   -79   -79    75    75    75    74    73    71    69    67    65    63    60    57    53    50    46    42    38    33    29    24    19    15    10     5     0    -5   -10   -15   -19   -24   -29   -33   -38   -42   -46   -50   -53   -57   -60   -63   -65   -67   -69   -71   -73   -74   -75   -75   -75    71    71    70    69    68    67    65    63    61    59    56    53    50    47    43    39    35    31    27    23    18    14     9     5     0    -5    -9   -14   -18   -23   -27   -31   -35   -39   -43   -47   -50   -53   -56   -59   -61   -63   -65   -67   -68   -69   -70   -71   -71    66    66    65    65    64    62    61    59    57    55    52    50    47    43    40    37    33    29    25    21    17    13     9     4     0    -4    -9   -13   -17   -21   -25   -29   -33   -37   -40   -43   -47   -50   -52   -55   -57   -59   -61   -62   -64   -65   -65   -66   -66    61    61    60    60    59    58    56    55    53    51    48    46    43    40    37    34    30    27    23    20    16    12     8     4     0    -4    -8   -12   -16   -20   -23   -27   -30   -34   -37   -40   -43   -46   -48   -51   -53   -55   -56   -58   -59   -60   -60   -61   -61    56    55    55    54    54    53    51    50    48    46    44    42    39    37    34    31    28    25    21    18    14    11     7     4     0    -4    -7   -11   -14   -18   -21   -25   -28   -31   -34   -37   -39   -42   -44   -46   -48   -50   -51   -53   -54   -54   -55   -55   -56    50    50    50    49    48    47    46    45    43    42    40    38    35    33    30    28    25    22    19    16    13    10     7     3     0    -3    -7   -10   -13   -16   -19   -22   -25   -28   -30   -33   -35   -38   -40   -42   -43   -45   -46   -47   -48   -49   -50   -50   -50    44    44    44    43    43    42    41    40    38    37    35    33    31    29    27    25    22    20    17    14    11     9     6     3     0    -3    -6    -9   -11   -14   -17   -20   -22   -25   -27   -29   -31   -33   -35   -37   -38   -40   -41   -42   -43   -43   -44   -44   -44    38    38    38    38    37    36    35    34    33    32    30    29    27    25    23    21    19    17    15    12    10     7     5     3     0    -3    -5    -7   -10   -12   -15   -17   -19   -21   -23   -25   -27   -29   -30   -32   -33   -34   -35   -36   -37   -38   -38   -38   -38    32    32    32    32    31    30    30    29    28    27    26    24    23    21    20    18    16    14    12    10     8     6     4     2     0    -2    -4    -6    -8   -10   -12   -14   -16   -18   -20   -21   -23   -24   -26   -27   -28   -29   -30   -30   -31   -32   -32   -32   -32    26    26    26    25    25    25    24    23    22    22    21    19    18    17    16    14    13    11    10     8     7     5     3     2     0    -2    -3    -5    -7    -8   -10   -11   -13   -14   -16   -17   -18   -19   -21   -22   -22   -23   -24   -25   -25   -25   -26   -26   -26    20    19    19    19    19    18    18    17    17    16    15    15    14    13    12    11    10     9     7     6     5     4     3     1     0    -1    -3    -4    -5    -6    -7    -9   -10   -11   -12   -13   -14   -15   -15   -16   -17   -17   -18   -18   -19   -19   -19   -19   -20    13    13    13    13    13    12    12    12    11    11    10    10     9     9     8     7     7     6     5     4     3     3     2     1     0    -1    -2    -3    -3    -4    -5    -6    -7    -7    -8    -9    -9   -10   -10   -11   -11   -12   -12   -12   -13   -13   -13   -13   -13     7     7     6     6     6     6     6     6     6     5     5     5     5     4     4     4     3     3     3     2     2     1     1     0     0    -0    -1    -1    -2    -2    -3    -3    -3    -4    -4    -4    -5    -5    -5    -5    -6    -6    -6    -6    -6    -6    -6    -7    -7    -0    -0    -0    -0    -0    -0    -0    -0    -0    -0    -0    -0    -0    -0    -0    -0    -0    -0    -0    -0    -0     0     0     0     0     0     0     0     0     0     0     0     0     0     0     0     0     0     0     0     0     0     0     0     0     0     0     0     0    -7    -7    -6    -6    -6    -6    -6    -6    -6    -5    -5    -5    -5    -4    -4    -4    -3    -3    -3    -2    -2    -1    -1    -0     0     0     1     1     2     2     3     3     3     4     4     4     5     5     5     5     6     6     6     6     6     6     6     7     7   -13   -13   -13   -13   -13   -12   -12   -12   -11   -11   -10   -10    -9    -9    -8    -7    -7    -6    -5    -4    -3    -3    -2    -1     0     1     2     3     3     4     5     6     7     7     8     9     9    10    10    11    11    12    12    12    13    13    13    13    13   -20   -19   -19   -19   -19   -18   -18   -17   -17   -16   -15   -15   -14   -13   -12   -11   -10    -9    -7    -6    -5    -4    -3    -1     0     1     3     4     5     6     7     9    10    11    12    13    14    15    15    16    17    17    18    18    19    19    19    19    20   -26   -26   -26   -25   -25   -25   -24   -23   -22   -22   -21   -19   -18   -17   -16   -14   -13   -11   -10    -8    -7    -5    -3    -2     0     2     3     5     7     8    10    11    13    14    16    17    18    19    21    22    22    23    24    25    25    25    26    26    26   -32   -32   -32   -32   -31   -30   -30   -29   -28   -27   -26   -24   -23   -21   -20   -18   -16   -14   -12   -10    -8    -6    -4    -2    -0     2     4     6     8    10    12    14    16    18    20    21    23    24    26    27    28    29    30    30    31    32    32    32    32   -38   -38   -38   -38   -37   -36   -35   -34   -33   -32   -30   -29   -27   -25   -23   -21   -19   -17   -15   -12   -10    -7    -5    -3    -0     3     5     7    10    12    15    17    19    21    23    25    27    29    30    32    33    34    35    36    37    38    38    38    38   -44   -44   -44   -43   -43   -42   -41   -40   -38   -37   -35   -33   -31   -29   -27   -25   -22   -20   -17   -14   -11    -9    -6    -3    -0     3     6     9    11    14    17    20    22    25    27    29    31    33    35    37    38    40    41    42    43    43    44    44    44   -50   -50   -50   -49   -48   -47   -46   -45   -43   -42   -40   -38   -35   -33   -30   -28   -25   -22   -19   -16   -13   -10    -7    -3    -0     3     7    10    13    16    19    22    25    28    30    33    35    38    40    42    43    45    46    47    48    49    50    50    50   -56   -55   -55   -54   -54   -53   -51   -50   -48   -46   -44   -42   -39   -37   -34   -31   -28   -25   -21   -18   -14   -11    -7    -4    -0     4     7    11    14    18    21    25    28    31    34    37    39    42    44    46    48    50    51    53    54    54    55    55    56   -61   -61   -60   -60   -59   -58   -56   -55   -53   -51   -48   -46   -43   -40   -37   -34   -30   -27   -23   -20   -16   -12    -8    -4    -0     4     8    12    16    20    23    27    30    34    37    40    43    46    48    51    53    55    56    58    59    60    60    61    61   -66   -66   -65   -65   -64   -62   -61   -59   -57   -55   -52   -50   -47   -43   -40   -37   -33   -29   -25   -21   -17   -13    -9    -4    -0     4     9    13    17    21    25    29    33    37    40    43    47    50    52    55    57    59    61    62    64    65    65    66    66   -71   -71   -70   -69   -68   -67   -65   -63   -61   -59   -56   -53   -50   -47   -43   -39   -35   -31   -27   -23   -18   -14    -9    -5    -0     5     9    14    18    23    27    31    35    39    43    47    50    53    56    59    61    63    65    67    68    69    70    71    71   -75   -75   -75   -74   -73   -71   -69   -67   -65   -63   -60   -57   -53   -50   -46   -42   -38   -33   -29   -24   -19   -15   -10    -5    -0     5    10    15    19    24    29    33    38    42    46    50    53    57    60    63    65    67    69    71    73    74    75    75    75   -79   -79   -79   -78   -77   -75   -73   -71   -69   -66   -63   -60   -56   -52   -48   -44   -40   -35   -30   -26   -21   -15   -10    -5    -0     5    10    15    21    26    30    35    40    44    48    52    56    60    63    66    69    71    73    75    77    78    79    79    79   -83   -83   -82   -82   -80   -79   -77   -75   -72   -69   -66   -63   -59   -55   -51   -46   -42   -37   -32   -27   -22   -16   -11    -5    -0     5    11    16    22    27    32    37    42    46    51    55    59    63    66    69    72    75    77    79    80    82    82    83    83   -87   -86   -86   -85   -84   -82   -80   -78   -75   -72   -69   -65   -61   -57   -53   -48   -43   -38   -33   -28   -22   -17   -11    -6    -0     6    11    17    22    28    33    38    43    48    53    57    61    65    69    72    75    78    80    82    84    85    86    86    87   -90   -89   -89   -88   -87   -85   -83   -80   -78   -75   -71   -67   -63   -59   -55   -50   -45   -40   -34   -29   -23   -17   -12    -6    -0     6    12    17    23    29    34    40    45    50    55    59    63    67    71    75    78    80    83    85    87    88    89    89    90   -92   -92   -92   -91   -89   -87   -85   -83   -80   -77   -73   -69   -65   -61   -56   -51   -46   -41   -35   -30   -24   -18   -12    -6    -0     6    12    18    24    30    35    41    46    51    56    61    65    69    73    77    80    83    85    87    89    91    92    92    92   -95   -94   -94   -93   -91   -90   -87   -85   -82   -79   -75   -71   -67   -62   -58   -53   -47   -42   -36   -30   -25   -18   -12    -6    -0     6    12    18    25    30    36    42    47    53    58    62    67    71    75    79    82    85    87    90    91    93    94    94    95   -97   -96   -96   -95   -93   -91   -89   -87   -84   -80   -77   -73   -68   -64   -59   -54   -48   -43   -37   -31   -25   -19   -13    -6    -0     6    13    19    25    31    37    43    48    54    59    64    68    73    77    80    84    87    89    91    93    95    96    96    97   -98   -98   -97   -96   -95   -93   -91   -88   -85   -82   -78   -74   -69   -65   -60   -54   -49   -43   -38   -32   -25   -19   -13    -6    -0     6    13    19    25    32    38    43    49    54    60    65    69    74    78    82    85    88    91    93    95    96    97    98    98   -99   -99   -98   -97   -96   -94   -92   -89   -86   -82   -79   -75   -70   -65   -60   -55   -50   -44   -38   -32   -26   -19   -13    -6    -0     6    13    19    26    32    38    44    50    55    60    65    70    75    79    82    86    89    92    94    96    97    98    99    99  -100  -100   -99   -98   -96   -94   -92   -89   -86   -83   -79   -75   -71   -66   -61   -55   -50   -44   -38   -32   -26   -19   -13    -7    -0     7    13    19    26    32    38    44    50    55    61    66    71    75    79    83    86    89    92    94    96    98    99   100   100  -100  -100   -99   -98   -97   -95   -92   -90   -87   -83   -79   -75   -71   -66   -61   -56   -50   -44   -38   -32   -26   -20   -13    -7    -0     7    13    20    26    32    38    44    50    56    61    66    71    75    79    83    87    90    92    95    97    98    99   100   100
