# vtk DataFile Version 2.0
Volume example
ASCII
DATASET STRUCTURED_POINTS
DIMENSIONS 15 15 1
ASPECT_RATIO 1 1 1
ORIGIN 0 0 0
POINT_DATA 225
SCALARS volume_scalars char 1
LOOKUP_TABLE default
100    97    90    78    62    43    22    -0   -22   -43   -62   -78   -90   -97  -100    97    95    88    76    61    42    22    -0   -22   -42   -61   -76   -88   -95   -97    90    88    81    70    56    39    20    -0   -20   -39   -56   -70   -81   -88   -90    78    76    70    61    49    34    17    -0   -17   -34   -49   -61   -70   -76   -78    62    61    56    49    39    27    14    -0   -14   -27   -39   -49   -56   -61   -62    43    42    39    34    27    19    10    -0   -10   -19   -27   -34   -39   -42   -43    22    22    20    17    14    10     5    -0    -5   -10   -14   -17   -20   -22   -22     0     0     0     0     0    -0    -0    -0    -0    -0    -0    -0    -0    -0    -0   -22   -22   -20   -17   -14   -10    -5    -0     5    10    14    17    20    22    22   -43   -42   -39   -34   -27   -19   -10    -0    10    19    27    34    39    42    43   -62   -61   -56   -49   -39   -27   -14    -0    14    27    39    49    56    61    62   -78   -76   -70   -61   -49   -34   -17    -0    17    34    49    61    70    76    78   -90   -88   -81   -70   -56   -39   -20    -0    20    39    56    70    81    88    90   -97   -95   -88   -76   -61   -42   -22    -0    22    42    61    76    88    95    97  -100   -97   -90   -78   -62   -43   -22    -0    22    43    62    78    90    97   100
