# vtk DataFile Version 2.0
Volume example
ASCII
DATASET STRUCTURED_POINTS
DIMENSIONS 28 28 1
ASPECT_RATIO 1 1 1
ORIGIN 0 0 0
POINT_DATA 784
SCALARS volume_scalars char 1
LOOKUP_TABLE default
100    99    97    94    89    84    77    69    60    50    40    29    17     6    -6   -17   -29   -40   -50   -60   -69   -77   -84   -89   -94   -97   -99  -100    99    99    97    93    89    83    76    68    59    50    39    28    17     6    -6   -17   -28   -39   -50   -59   -68   -76   -83   -89   -93   -97   -99   -99    97    97    95    91    87    81    75    67    58    49    39    28    17     6    -6   -17   -28   -39   -49   -58   -67   -75   -81   -87   -91   -95   -97   -97    94    93    91    88    84    79    72    64    56    47    37    27    16     5    -5   -16   -27   -37   -47   -56   -64   -72   -79   -84   -88   -91   -93   -94    89    89    87    84    80    75    68    61    53    45    35    26    16     5    -5   -16   -26   -35   -45   -53   -61   -68   -75   -80   -84   -87   -89   -89    84    83    81    79    75    70    64    57    50    42    33    24    15     5    -5   -15   -24   -33   -42   -50   -57   -64   -70   -75   -79   -81   -83   -84    77    76    75    72    68    64    59    53    46    38    30    22    13     4    -4   -13   -22   -30   -38   -46   -53   -59   -64   -68   -72   -75   -76   -77    69    68    67    64    61    57    53    47    41    34    27    20    12     4    -4   -12   -20   -27   -34   -41   -47   -53   -57   -61   -64   -67   -68   -69    60    59    58    56    53    50    46    41    36    30    24    17    10     3    -3   -10   -17   -24   -30   -36   -41   -46   -50   -53   -56   -58   -59   -60    50    50    49    47    45    42    38    34    30    25    20    14     9     3    -3    -9   -14   -20   -25   -30   -34   -38   -42   -45   -47   -49   -50   -50    40    39    39    37    35    33    30    27    24    20    16    11     7     2    -2    -7   -11   -16   -20   -24   -27   -30   -33   -35   -37   -39   -39   -40    29    28    28    27    26    24    22    20    17    14    11     8     5     2    -2    -5    -8   -11   -14   -17   -20   -22   -24   -26   -27   -28   -28   -29    17    17    17    16    16    15    13    12    10     9     7     5     3     1    -1    -3    -5    -7    -9   -10   -12   -13   -15   -16   -16   -17   -17   -17     6     6     6     5     5     5     4     4     3     3     2     2     1     0    -0    -1    -2    -2    -3    -3    -4    -4    -5    -5    -5    -6    -6    -6    -6    -6    -6    -5    -5    -5    -4    -4    -3    -3    -2    -2    -1    -0     0     1     2     2     3     3     4     4     5     5     5     6     6     6   -17   -17   -17   -16   -16   -15   -13   -12   -10    -9    -7    -5    -3    -1     1     3     5     7     9    10    12    13    15    16    16    17    17    17   -29   -28   -28   -27   -26   -24   -22   -20   -17   -14   -11    -8    -5    -2     2     5     8    11    14    17    20    22    24    26    27    28    28    29   -40   -39   -39   -37   -35   -33   -30   -27   -24   -20   -16   -11    -7    -2     2     7    11    16    20    24    27    30    33    35    37    39    39    40   -50   -50   -49   -47   -45   -42   -38   -34   -30   -25   -20   -14    -9    -3     3     9    14    20    25    30    34    38    42    45    47    49    50    50   -60   -59   -58   -56   -53   -50   -46   -41   -36   -30   -24   -17   -10    -3     3    10    17    24    30    36    41    46    50    53    56    58    59    60   -69   -68   -67   -64   -61   -57   -53   -47   -41   -34   -27   -20   -12    -4     4    12    20    27    34    41    47    53    57    61    64    67    68    69   -77   -76   -75   -72   -68   -64   -59   -53   -46   -38   -30   -22   -13    -4     4    13    22    30    38    46    53    59    64    68    72    75    76    77   -84   -83   -81   -79   -75   -70   -64   -57   -50   -42   -33   -24   -15    -5     5    15    24    33    42    50    57    64    70    75    79    81    83    84   -89   -89   -87   -84   -80   -75   -68   -61   -53   -45   -35   -26   -16    -5     5    16    26    35    45    53    61    68    75    80    84    87    89    89   -94   -93   -91   -88   -84   -79   -72   -64   -56   -47   -37   -27   -16    -5     5    16    27    37    47    56    64    72    79    84    88    91    93    94   -97   -97   -95   -91   -87   -81   -75   -67   -58   -49   -39   -28   -17    -6     6    17    28    39    49    58    67    75    81    87    91    95    97    97   -99   -99   -97   -93   -89   -83   -76   -68   -59   -50   -39   -28   -17    -6     6    17    28    39    50    59    68    76    83    89    93    97    99    99  -100   -99   -97   -94   -89   -84   -77   -69   -60   -50   -40   -29   -17    -6     6    17    29    40    50    60    69    77    84    89    94    97    99   100
