# vtk DataFile Version 2.0
Volume example
ASCII
DATASET STRUCTURED_POINTS
DIMENSIONS 32 32 1
ASPECT_RATIO 1 1 1
ORIGIN 0 0 0
POINT_DATA 1024
SCALARS volume_scalars char 1
LOOKUP_TABLE default
100    99    98    95    92    87    82    76    69    61    53    44    35    25    15     5    -5   -15   -25   -35   -44   -53   -61   -69   -76   -82   -87   -92   -95   -98   -99  -100    99    99    97    95    91    87    82    75    69    61    53    44    35    25    15     5    -5   -15   -25   -35   -44   -53   -61   -69   -75   -82   -87   -91   -95   -97   -99   -99    98    97    96    93    90    86    80    74    67    60    52    43    34    25    15     5    -5   -15   -25   -34   -43   -52   -60   -67   -74   -80   -86   -90   -93   -96   -97   -98    95    95    93    91    88    83    78    72    66    58    50    42    33    24    14     5    -5   -14   -24   -33   -42   -50   -58   -66   -72   -78   -83   -88   -91   -93   -95   -95    92    91    90    88    84    80    75    70    63    56    49    40    32    23    14     5    -5   -14   -23   -32   -40   -49   -56   -63   -70   -75   -80   -84   -88   -90   -91   -92    87    87    86    83    80    76    72    66    60    54    46    39    30    22    13     4    -4   -13   -22   -30   -39   -46   -54   -60   -66   -72   -76   -80   -83   -86   -87   -87    82    82    80    78    75    72    67    62    57    50    43    36    29    21    12     4    -4   -12   -21   -29   -36   -43   -50   -57   -62   -67   -72   -75   -78   -80   -82   -82    76    75    74    72    70    66    62    58    52    46    40    33    26    19    11     4    -4   -11   -19   -26   -33   -40   -46   -52   -58   -62   -66   -70   -72   -74   -75   -76    69    69    67    66    63    60    57    52    47    42    36    30    24    17    10     3    -3   -10   -17   -24   -30   -36   -42   -47   -52   -57   -60   -63   -66   -67   -69   -69    61    61    60    58    56    54    50    46    42    37    32    27    21    15     9     3    -3    -9   -15   -21   -27   -32   -37   -42   -46   -50   -54   -56   -58   -60   -61   -61    53    53    52    50    49    46    43    40    36    32    28    23    18    13     8     3    -3    -8   -13   -18   -23   -28   -32   -36   -40   -43   -46   -49   -50   -52   -53   -53    44    44    43    42    40    39    36    33    30    27    23    19    15    11     7     2    -2    -7   -11   -15   -19   -23   -27   -30   -33   -36   -39   -40   -42   -43   -44   -44    35    35    34    33    32    30    29    26    24    21    18    15    12     9     5     2    -2    -5    -9   -12   -15   -18   -21   -24   -26   -29   -30   -32   -33   -34   -35   -35    25    25    25    24    23    22    21    19    17    15    13    11     9     6     4     1    -1    -4    -6    -9   -11   -13   -15   -17   -19   -21   -22   -23   -24   -25   -25   -25    15    15    15    14    14    13    12    11    10     9     8     7     5     4     2     1    -1    -2    -4    -5    -7    -8    -9   -10   -11   -12   -13   -14   -14   -15   -15   -15     5     5     5     5     5     4     4     4     3     3     3     2     2     1     1     0    -0    -1    -1    -2    -2    -3    -3    -3    -4    -4    -4    -5    -5    -5    -5    -5    -5    -5    -5    -5    -5    -4    -4    -4    -3    -3    -3    -2    -2    -1    -1    -0     0     1     1     2     2     3     3     3     4     4     4     5     5     5     5     5   -15   -15   -15   -14   -14   -13   -12   -11   -10    -9    -8    -7    -5    -4    -2    -1     1     2     4     5     7     8     9    10    11    12    13    14    14    15    15    15   -25   -25   -25   -24   -23   -22   -21   -19   -17   -15   -13   -11    -9    -6    -4    -1     1     4     6     9    11    13    15    17    19    21    22    23    24    25    25    25   -35   -35   -34   -33   -32   -30   -29   -26   -24   -21   -18   -15   -12    -9    -5    -2     2     5     9    12    15    18    21    24    26    29    30    32    33    34    35    35   -44   -44   -43   -42   -40   -39   -36   -33   -30   -27   -23   -19   -15   -11    -7    -2     2     7    11    15    19    23    27    30    33    36    39    40    42    43    44    44   -53   -53   -52   -50   -49   -46   -43   -40   -36   -32   -28   -23   -18   -13    -8    -3     3     8    13    18    23    28    32    36    40    43    46    49    50    52    53    53   -61   -61   -60   -58   -56   -54   -50   -46   -42   -37   -32   -27   -21   -15    -9    -3     3     9    15    21    27    32    37    42    46    50    54    56    58    60    61    61   -69   -69   -67   -66   -63   -60   -57   -52   -47   -42   -36   -30   -24   -17   -10    -3     3    10    17    24    30    36    42    47    52    57    60    63    66    67    69    69   -76   -75   -74   -72   -70   -66   -62   -58   -52   -46   -40   -33   -26   -19   -11    -4     4    11    19    26    33    40    46    52    58    62    66    70    72    74    75    76   -82   -82   -80   -78   -75   -72   -67   -62   -57   -50   -43   -36   -29   -21   -12    -4     4    12    21    29    36    43    50    57    62    67    72    75    78    80    82    82   -87   -87   -86   -83   -80   -76   -72   -66   -60   -54   -46   -39   -30   -22   -13    -4     4    13    22    30    39    46    54    60    66    72    76    80    83    86    87    87   -92   -91   -90   -88   -84   -80   -75   -70   -63   -56   -49   -40   -32   -23   -14    -5     5    14    23    32    40    49    56    63    70    75    80    84    88    90    91    92   -95   -95   -93   -91   -88   -83   -78   -72   -66   -58   -50   -42   -33   -24   -14    -5     5    14    24    33    42    50    58    66    72    78    83    88    91    93    95    95   -98   -97   -96   -93   -90   -86   -80   -74   -67   -60   -52   -43   -34   -25   -15    -5     5    15    25    34    43    52    60    67    74    80    86    90    93    96    97    98   -99   -99   -97   -95   -91   -87   -82   -75   -69   -61   -53   -44   -35   -25   -15    -5     5    15    25    35    44    53    61    69    75    82    87    91    95    97    99    99  -100   -99   -98   -95   -92   -87   -82   -76   -69   -61   -53   -44   -35   -25   -15    -5     5    15    25    35    44    53    61    69    76    82    87    92    95    98    99   100
