# vtk DataFile Version 2.0
Volume example
ASCII
DATASET STRUCTURED_POINTS
DIMENSIONS 45 45 1
ASPECT_RATIO 1 1 1
ORIGIN 0 0 0
POINT_DATA 2025
SCALARS volume_scalars char 1
LOOKUP_TABLE default
100   100    99    98    96    94    91    88    84    80    76    71    65    60    54    48    42    35    28    21    14     7    -0    -7   -14   -21   -28   -35   -42   -48   -54   -60   -65   -71   -76   -80   -84   -88   -91   -94   -96   -98   -99  -100  -100   100    99    99    97    96    93    91    88    84    80    75    71    65    60    54    48    41    35    28    21    14     7    -0    -7   -14   -21   -28   -35   -41   -48   -54   -60   -65   -71   -75   -80   -84   -88   -91   -93   -96   -97   -99   -99  -100    99    99    98    97    95    93    90    87    83    79    75    70    65    59    54    47    41    35    28    21    14     7    -0    -7   -14   -21   -28   -35   -41   -47   -54   -59   -65   -70   -75   -79   -83   -87   -90   -93   -95   -97   -98   -99   -99    98    97    97    95    94    92    89    86    82    78    74    69    64    59    53    47    41    34    28    21    14     7    -0    -7   -14   -21   -28   -34   -41   -47   -53   -59   -64   -69   -74   -78   -82   -86   -89   -92   -94   -95   -97   -97   -98    96    96    95    94    92    90    87    84    81    77    73    68    63    58    52    46    40    34    27    20    14     7    -0    -7   -14   -20   -27   -34   -40   -46   -52   -58   -63   -68   -73   -77   -81   -84   -87   -90   -92   -94   -95   -96   -96    94    93    93    92    90    88    85    82    79    75    71    66    61    56    51    45    39    33    26    20    13     7    -0    -7   -13   -20   -26   -33   -39   -45   -51   -56   -61   -66   -71   -75   -79   -82   -85   -88   -90   -92   -93   -93   -94    91    91    90    89    87    85    83    80    77    73    69    64    60    55    49    44    38    32    26    19    13     6    -0    -6   -13   -19   -26   -32   -38   -44   -49   -55   -60   -64   -69   -73   -77   -80   -83   -85   -87   -89   -90   -91   -91    88    88    87    86    84    82    80    77    74    70    66    62    57    53    47    42    36    31    25    19    12     6    -0    -6   -12   -19   -25   -31   -36   -42   -47   -53   -57   -62   -66   -70   -74   -77   -80   -82   -84   -86   -87   -88   -88    84    84    83    82    81    79    77    74    71    67    64    59    55    50    45    40    35    29    24    18    12     6    -0    -6   -12   -18   -24   -29   -35   -40   -45   -50   -55   -59   -64   -67   -71   -74   -77   -79   -81   -82   -83   -84   -84    80    80    79    78    77    75    73    70    67    64    61    57    52    48    43    38    33    28    23    17    11     6    -0    -6   -11   -17   -23   -28   -33   -38   -43   -48   -52   -57   -61   -64   -67   -70   -73   -75   -77   -78   -79   -80   -80    76    75    75    74    73    71    69    66    64    61    57    53    49    45    41    36    31    26    21    16    11     5    -0    -5   -11   -16   -21   -26   -31   -36   -41   -45   -49   -53   -57   -61   -64   -66   -69   -71   -73   -74   -75   -75   -76    71    71    70    69    68    66    64    62    59    57    53    50    46    42    38    34    29    25    20    15    10     5    -0    -5   -10   -15   -20   -25   -29   -34   -38   -42   -46   -50   -53   -57   -59   -62   -64   -66   -68   -69   -70   -71   -71    65    65    65    64    63    61    60    57    55    52    49    46    43    39    35    31    27    23    18    14     9     5    -0    -5    -9   -14   -18   -23   -27   -31   -35   -39   -43   -46   -49   -52   -55   -57   -60   -61   -63   -64   -65   -65   -65    60    60    59    59    58    56    55    53    50    48    45    42    39    36    32    29    25    21    17    13     9     4    -0    -4    -9   -13   -17   -21   -25   -29   -32   -36   -39   -42   -45   -48   -50   -53   -55   -56   -58   -59   -59   -60   -60    54    54    54    53    52    51    49    47    45    43    41    38    35    32    29    26    22    19    15    11     8     4    -0    -4    -8   -11   -15   -19   -22   -26   -29   -32   -35   -38   -41   -43   -45   -47   -49   -51   -52   -53   -54   -54   -54    48    48    47    47    46    45    44    42    40    38    36    34    31    29    26    23    20    17    14    10     7     3    -0    -3    -7   -10   -14   -17   -20   -23   -26   -29   -31   -34   -36   -38   -40   -42   -44   -45   -46   -47   -47   -48   -48    42    41    41    41    40    39    38    36    35    33    31    29    27    25    22    20    17    15    12     9     6     3    -0    -3    -6    -9   -12   -15   -17   -20   -22   -25   -27   -29   -31   -33   -35   -36   -38   -39   -40   -41   -41   -41   -42    35    35    35    34    34    33    32    31    29    28    26    25    23    21    19    17    15    12    10     7     5     2    -0    -2    -5    -7   -10   -12   -15   -17   -19   -21   -23   -25   -26   -28   -29   -31   -32   -33   -34   -34   -35   -35   -35    28    28    28    28    27    26    26    25    24    23    21    20    18    17    15    14    12    10     8     6     4     2    -0    -2    -4    -6    -8   -10   -12   -14   -15   -17   -18   -20   -21   -23   -24   -25   -26   -26   -27   -28   -28   -28   -28    21    21    21    21    20    20    19    19    18    17    16    15    14    13    11    10     9     7     6     5     3     2    -0    -2    -3    -5    -6    -7    -9   -10   -11   -13   -14   -15   -16   -17   -18   -19   -19   -20   -20   -21   -21   -21   -21    14    14    14    14    14    13    13    12    12    11    11    10     9     9     8     7     6     5     4     3     2     1    -0    -1    -2    -3    -4    -5    -6    -7    -8    -9    -9   -10   -11   -11   -12   -12   -13   -13   -14   -14   -14   -14   -14     7     7     7     7     7     7     6     6     6     6     5     5     5     4     4     3     3     2     2     2     1     1    -0    -1    -1    -2    -2    -2    -3    -3    -4    -4    -5    -5    -5    -6    -6    -6    -6    -7    -7    -7    -7    -7    -7    -0    -0    -0    -0    -0    -0    -0    -0    -0    -0    -0    -0    -0    -0    -0    -0    -0    -0    -0    -0    -0    -0    -0    -0    -0    -0    -0    -0    -0    -0    -0     0     0     0     0     0     0     0     0     0     0     0     0     0     0    -7    -7    -7    -7    -7    -7    -6    -6    -6    -6    -5    -5    -5    -4    -4    -3    -3    -2    -2    -2    -1    -1    -0     1     1     2     2     2     3     3     4     4     5     5     5     6     6     6     6     7     7     7     7     7     7   -14   -14   -14   -14   -14   -13   -13   -12   -12   -11   -11   -10    -9    -9    -8    -7    -6    -5    -4    -3    -2    -1    -0     1     2     3     4     5     6     7     8     9     9    10    11    11    12    12    13    13    14    14    14    14    14   -21   -21   -21   -21   -20   -20   -19   -19   -18   -17   -16   -15   -14   -13   -11   -10    -9    -7    -6    -5    -3    -2    -0     2     3     5     6     7     9    10    11    13    14    15    16    17    18    19    19    20    20    21    21    21    21   -28   -28   -28   -28   -27   -26   -26   -25   -24   -23   -21   -20   -18   -17   -15   -14   -12   -10    -8    -6    -4    -2    -0     2     4     6     8    10    12    14    15    17    18    20    21    23    24    25    26    26    27    28    28    28    28   -35   -35   -35   -34   -34   -33   -32   -31   -29   -28   -26   -25   -23   -21   -19   -17   -15   -12   -10    -7    -5    -2    -0     2     5     7    10    12    15    17    19    21    23    25    26    28    29    31    32    33    34    34    35    35    35   -42   -41   -41   -41   -40   -39   -38   -36   -35   -33   -31   -29   -27   -25   -22   -20   -17   -15   -12    -9    -6    -3    -0     3     6     9    12    15    17    20    22    25    27    29    31    33    35    36    38    39    40    41    41    41    42   -48   -48   -47   -47   -46   -45   -44   -42   -40   -38   -36   -34   -31   -29   -26   -23   -20   -17   -14   -10    -7    -3    -0     3     7    10    14    17    20    23    26    29    31    34    36    38    40    42    44    45    46    47    47    48    48   -54   -54   -54   -53   -52   -51   -49   -47   -45   -43   -41   -38   -35   -32   -29   -26   -22   -19   -15   -11    -8    -4    -0     4     8    11    15    19    22    26    29    32    35    38    41    43    45    47    49    51    52    53    54    54    54   -60   -60   -59   -59   -58   -56   -55   -53   -50   -48   -45   -42   -39   -36   -32   -29   -25   -21   -17   -13    -9    -4    -0     4     9    13    17    21    25    29    32    36    39    42    45    48    50    53    55    56    58    59    59    60    60   -65   -65   -65   -64   -63   -61   -60   -57   -55   -52   -49   -46   -43   -39   -35   -31   -27   -23   -18   -14    -9    -5    -0     5     9    14    18    23    27    31    35    39    43    46    49    52    55    57    60    61    63    64    65    65    65   -71   -71   -70   -69   -68   -66   -64   -62   -59   -57   -53   -50   -46   -42   -38   -34   -29   -25   -20   -15   -10    -5    -0     5    10    15    20    25    29    34    38    42    46    50    53    57    59    62    64    66    68    69    70    71    71   -76   -75   -75   -74   -73   -71   -69   -66   -64   -61   -57   -53   -49   -45   -41   -36   -31   -26   -21   -16   -11    -5    -0     5    11    16    21    26    31    36    41    45    49    53    57    61    64    66    69    71    73    74    75    75    76   -80   -80   -79   -78   -77   -75   -73   -70   -67   -64   -61   -57   -52   -48   -43   -38   -33   -28   -23   -17   -11    -6    -0     6    11    17    23    28    33    38    43    48    52    57    61    64    67    70    73    75    77    78    79    80    80   -84   -84   -83   -82   -81   -79   -77   -74   -71   -67   -64   -59   -55   -50   -45   -40   -35   -29   -24   -18   -12    -6    -0     6    12    18    24    29    35    40    45    50    55    59    64    67    71    74    77    79    81    82    83    84    84   -88   -88   -87   -86   -84   -82   -80   -77   -74   -70   -66   -62   -57   -53   -47   -42   -36   -31   -25   -19   -12    -6    -0     6    12    19    25    31    36    42    47    53    57    62    66    70    74    77    80    82    84    86    87    88    88   -91   -91   -90   -89   -87   -85   -83   -80   -77   -73   -69   -64   -60   -55   -49   -44   -38   -32   -26   -19   -13    -6    -0     6    13    19    26    32    38    44    49    55    60    64    69    73    77    80    83    85    87    89    90    91    91   -94   -93   -93   -92   -90   -88   -85   -82   -79   -75   -71   -66   -61   -56   -51   -45   -39   -33   -26   -20   -13    -7    -0     7    13    20    26    33    39    45    51    56    61    66    71    75    79    82    85    88    90    92    93    93    94   -96   -96   -95   -94   -92   -90   -87   -84   -81   -77   -73   -68   -63   -58   -52   -46   -40   -34   -27   -20   -14    -7    -0     7    14    20    27    34    40    46    52    58    63    68    73    77    81    84    87    90    92    94    95    96    96   -98   -97   -97   -95   -94   -92   -89   -86   -82   -78   -74   -69   -64   -59   -53   -47   -41   -34   -28   -21   -14    -7    -0     7    14    21    28    34    41    47    53    59    64    69    74    78    82    86    89    92    94    95    97    97    98   -99   -99   -98   -97   -95   -93   -90   -87   -83   -79   -75   -70   -65   -59   -54   -47   -41   -35   -28   -21   -14    -7    -0     7    14    21    28    35    41    47    54    59    65    70    75    79    83    87    90    93    95    97    98    99    99  -100   -99   -99   -97   -96   -93   -91   -88   -84   -80   -75   -71   -65   -60   -54   -48   -41   -35   -28   -21   -14    -7    -0     7    14    21    28    35    41    48    54    60    65    71    75    80    84    88    91    93    96    97    99    99   100  -100  -100   -99   -98   -96   -94   -91   -88   -84   -80   -76   -71   -65   -60   -54   -48   -42   -35   -28   -21   -14    -7    -0     7    14    21    28    35    42    48    54    60    65    71    76    80    84    88    91    94    96    98    99   100   100
