# vtk DataFile Version 2.0
Volume example
ASCII
DATASET STRUCTURED_POINTS
DIMENSIONS 53 53 1
ASPECT_RATIO 1 1 1
ORIGIN 0 0 0
POINT_DATA 2809
SCALARS volume_scalars char 1
LOOKUP_TABLE default
100   100    99    98    97    95    94    91    89    86    82    79    75    71    66    62    57    52    46    41    35    30    24    18    12     6     0    -6   -12   -18   -24   -30   -35   -41   -46   -52   -57   -62   -66   -71   -75   -79   -82   -86   -89   -91   -94   -95   -97   -98   -99  -100  -100   100   100    99    98    97    95    93    91    88    85    82    79    75    71    66    62    57    52    46    41    35    30    24    18    12     6     0    -6   -12   -18   -24   -30   -35   -41   -46   -52   -57   -62   -66   -71   -75   -79   -82   -85   -88   -91   -93   -95   -97   -98   -99  -100  -100    99    99    99    98    96    95    93    91    88    85    82    78    74    70    66    61    56    51    46    41    35    30    24    18    12     6     0    -6   -12   -18   -24   -30   -35   -41   -46   -51   -56   -61   -66   -70   -74   -78   -82   -85   -88   -91   -93   -95   -96   -98   -99   -99   -99    98    98    98    97    96    94    92    90    87    84    81    77    74    70    65    61    56    51    46    40    35    29    24    18    12     6     0    -6   -12   -18   -24   -29   -35   -40   -46   -51   -56   -61   -65   -70   -74   -77   -81   -84   -87   -90   -92   -94   -96   -97   -98   -98   -98    97    97    96    96    94    93    91    89    86    83    80    76    73    69    64    60    55    50    45    40    34    29    23    18    12     6     0    -6   -12   -18   -23   -29   -34   -40   -45   -50   -55   -60   -64   -69   -73   -76   -80   -83   -86   -89   -91   -93   -94   -96   -96   -97   -97    95    95    95    94    93    91    89    87    85    82    79    75    71    68    63    59    54    49    44    39    34    28    23    17    12     6     0    -6   -12   -17   -23   -28   -34   -39   -44   -49   -54   -59   -63   -68   -71   -75   -79   -82   -85   -87   -89   -91   -93   -94   -95   -95   -95    94    93    93    92    91    89    87    85    83    80    77    74    70    66    62    58    53    48    43    38    33    28    22    17    11     6     0    -6   -11   -17   -22   -28   -33   -38   -43   -48   -53   -58   -62   -66   -70   -74   -77   -80   -83   -85   -87   -89   -91   -92   -93   -93   -94    91    91    91    90    89    87    85    83    81    78    75    72    68    64    60    56    52    47    42    37    32    27    22    16    11     6     0    -6   -11   -16   -22   -27   -32   -37   -42   -47   -52   -56   -60   -64   -68   -72   -75   -78   -81   -83   -85   -87   -89   -90   -91   -91   -91    89    88    88    87    86    85    83    81    78    76    73    70    66    63    59    55    50    46    41    36    31    26    21    16    11     5     0    -5   -11   -16   -21   -26   -31   -36   -41   -46   -50   -55   -59   -63   -66   -70   -73   -76   -78   -81   -83   -85   -86   -87   -88   -88   -89    86    85    85    84    83    82    80    78    76    73    70    67    64    61    57    53    49    44    40    35    30    25    20    15    10     5     0    -5   -10   -15   -20   -25   -30   -35   -40   -44   -49   -53   -57   -61   -64   -67   -70   -73   -76   -78   -80   -82   -83   -84   -85   -85   -86    82    82    82    81    80    79    77    75    73    70    68    65    62    58    55    51    47    43    38    34    29    24    20    15    10     5     0    -5   -10   -15   -20   -24   -29   -34   -38   -43   -47   -51   -55   -58   -62   -65   -68   -70   -73   -75   -77   -79   -80   -81   -82   -82   -82    79    79    78    77    76    75    74    72    70    67    65    62    59    56    52    49    45    41    37    32    28    23    19    14     9     5     0    -5    -9   -14   -19   -23   -28   -32   -37   -41   -45   -49   -52   -56   -59   -62   -65   -67   -70   -72   -74   -75   -76   -77   -78   -79   -79    75    75    74    74    73    71    70    68    66    64    62    59    56    53    50    46    43    39    35    31    27    22    18    13     9     5     0    -5    -9   -13   -18   -22   -27   -31   -35   -39   -43   -46   -50   -53   -56   -59   -62   -64   -66   -68   -70   -71   -73   -74   -74   -75   -75    71    71    70    70    69    68    66    64    63    61    58    56    53    50    47    44    40    37    33    29    25    21    17    13     9     4     0    -4    -9   -13   -17   -21   -25   -29   -33   -37   -40   -44   -47   -50   -53   -56   -58   -61   -63   -64   -66   -68   -69   -70   -70   -71   -71    66    66    66    65    64    63    62    60    59    57    55    52    50    47    44    41    38    34    31    27    24    20    16    12     8     4     0    -4    -8   -12   -16   -20   -24   -27   -31   -34   -38   -41   -44   -47   -50   -52   -55   -57   -59   -60   -62   -63   -64   -65   -66   -66   -66    62    62    61    61    60    59    58    56    55    53    51    49    46    44    41    38    35    32    29    25    22    18    15    11     7     4     0    -4    -7   -11   -15   -18   -22   -25   -29   -32   -35   -38   -41   -44   -46   -49   -51   -53   -55   -56   -58   -59   -60   -61   -61   -62   -62    57    57    56    56    55    54    53    52    50    49    47    45    43    40    38    35    32    29    26    23    20    17    14    10     7     3     0    -3    -7   -10   -14   -17   -20   -23   -26   -29   -32   -35   -38   -40   -43   -45   -47   -49   -50   -52   -53   -54   -55   -56   -56   -57   -57    52    52    51    51    50    49    48    47    46    44    43    41    39    37    34    32    29    27    24    21    18    15    12     9     6     3     0    -3    -6    -9   -12   -15   -18   -21   -24   -27   -29   -32   -34   -37   -39   -41   -43   -44   -46   -47   -48   -49   -50   -51   -51   -52   -52    46    46    46    46    45    44    43    42    41    40    38    37    35    33    31    29    26    24    22    19    16    14    11     8     6     3     0    -3    -6    -8   -11   -14   -16   -19   -22   -24   -26   -29   -31   -33   -35   -37   -38   -40   -41   -42   -43   -44   -45   -46   -46   -46   -46    41    41    41    40    40    39    38    37    36    35    34    32    31    29    27    25    23    21    19    17    15    12    10     7     5     2     0    -2    -5    -7   -10   -12   -15   -17   -19   -21   -23   -25   -27   -29   -31   -32   -34   -35   -36   -37   -38   -39   -40   -40   -41   -41   -41    35    35    35    35    34    34    33    32    31    30    29    28    27    25    24    22    20    18    16    15    13    11     8     6     4     2     0    -2    -4    -6    -8   -11   -13   -15   -16   -18   -20   -22   -24   -25   -27   -28   -29   -30   -31   -32   -33   -34   -34   -35   -35   -35   -35    30    30    30    29    29    28    28    27    26    25    24    23    22    21    20    18    17    15    14    12    11     9     7     5     4     2     0    -2    -4    -5    -7    -9   -11   -12   -14   -15   -17   -18   -20   -21   -22   -23   -24   -25   -26   -27   -28   -28   -29   -29   -30   -30   -30    24    24    24    24    23    23    22    22    21    20    20    19    18    17    16    15    14    12    11    10     8     7     6     4     3     1     0    -1    -3    -4    -6    -7    -8   -10   -11   -12   -14   -15   -16   -17   -18   -19   -20   -20   -21   -22   -22   -23   -23   -24   -24   -24   -24    18    18    18    18    18    17    17    16    16    15    15    14    13    13    12    11    10     9     8     7     6     5     4     3     2     1     0    -1    -2    -3    -4    -5    -6    -7    -8    -9   -10   -11   -12   -13   -13   -14   -15   -15   -16   -16   -17   -17   -18   -18   -18   -18   -18    12    12    12    12    12    12    11    11    11    10    10     9     9     9     8     7     7     6     6     5     4     4     3     2     1     1     0    -1    -1    -2    -3    -4    -4    -5    -6    -6    -7    -7    -8    -9    -9    -9   -10   -10   -11   -11   -11   -12   -12   -12   -12   -12   -12     6     6     6     6     6     6     6     6     5     5     5     5     5     4     4     4     3     3     3     2     2     2     1     1     1     0     0    -0    -1    -1    -1    -2    -2    -2    -3    -3    -3    -4    -4    -4    -5    -5    -5    -5    -5    -6    -6    -6    -6    -6    -6    -6    -6    -0    -0    -0    -0    -0    -0    -0    -0    -0    -0    -0    -0    -0    -0    -0    -0    -0    -0    -0     0     0     0     0     0     0     0     0     0     0     0     0     0     0     0     0     0     0     0     0     0     0     0     0     0     0     0     0     0     0     0     0     0     0    -6    -6    -6    -6    -6    -6    -6    -6    -5    -5    -5    -5    -5    -4    -4    -4    -3    -3    -3    -2    -2    -2    -1    -1    -1    -0     0     0     1     1     1     2     2     2     3     3     3     4     4     4     5     5     5     5     5     6     6     6     6     6     6     6     6   -12   -12   -12   -12   -12   -12   -11   -11   -11   -10   -10    -9    -9    -9    -8    -7    -7    -6    -6    -5    -4    -4    -3    -2    -1    -1     0     1     1     2     3     4     4     5     6     6     7     7     8     9     9     9    10    10    11    11    11    12    12    12    12    12    12   -18   -18   -18   -18   -18   -17   -17   -16   -16   -15   -15   -14   -13   -13   -12   -11   -10    -9    -8    -7    -6    -5    -4    -3    -2    -1     0     1     2     3     4     5     6     7     8     9    10    11    12    13    13    14    15    15    16    16    17    17    18    18    18    18    18   -24   -24   -24   -24   -23   -23   -22   -22   -21   -20   -20   -19   -18   -17   -16   -15   -14   -12   -11   -10    -8    -7    -6    -4    -3    -1     0     1     3     4     6     7     8    10    11    12    14    15    16    17    18    19    20    20    21    22    22    23    23    24    24    24    24   -30   -30   -30   -29   -29   -28   -28   -27   -26   -25   -24   -23   -22   -21   -20   -18   -17   -15   -14   -12   -11    -9    -7    -5    -4    -2     0     2     4     5     7     9    11    12    14    15    17    18    20    21    22    23    24    25    26    27    28    28    29    29    30    30    30   -35   -35   -35   -35   -34   -34   -33   -32   -31   -30   -29   -28   -27   -25   -24   -22   -20   -18   -16   -15   -13   -11    -8    -6    -4    -2     0     2     4     6     8    11    13    15    16    18    20    22    24    25    27    28    29    30    31    32    33    34    34    35    35    35    35   -41   -41   -41   -40   -40   -39   -38   -37   -36   -35   -34   -32   -31   -29   -27   -25   -23   -21   -19   -17   -15   -12   -10    -7    -5    -2     0     2     5     7    10    12    15    17    19    21    23    25    27    29    31    32    34    35    36    37    38    39    40    40    41    41    41   -46   -46   -46   -46   -45   -44   -43   -42   -41   -40   -38   -37   -35   -33   -31   -29   -26   -24   -22   -19   -16   -14   -11    -8    -6    -3     0     3     6     8    11    14    16    19    22    24    26    29    31    33    35    37    38    40    41    42    43    44    45    46    46    46    46   -52   -52   -51   -51   -50   -49   -48   -47   -46   -44   -43   -41   -39   -37   -34   -32   -29   -27   -24   -21   -18   -15   -12    -9    -6    -3     0     3     6     9    12    15    18    21    24    27    29    32    34    37    39    41    43    44    46    47    48    49    50    51    51    52    52   -57   -57   -56   -56   -55   -54   -53   -52   -50   -49   -47   -45   -43   -40   -38   -35   -32   -29   -26   -23   -20   -17   -14   -10    -7    -3     0     3     7    10    14    17    20    23    26    29    32    35    38    40    43    45    47    49    50    52    53    54    55    56    56    57    57   -62   -62   -61   -61   -60   -59   -58   -56   -55   -53   -51   -49   -46   -44   -41   -38   -35   -32   -29   -25   -22   -18   -15   -11    -7    -4     0     4     7    11    15    18    22    25    29    32    35    38    41    44    46    49    51    53    55    56    58    59    60    61    61    62    62   -66   -66   -66   -65   -64   -63   -62   -60   -59   -57   -55   -52   -50   -47   -44   -41   -38   -34   -31   -27   -24   -20   -16   -12    -8    -4     0     4     8    12    16    20    24    27    31    34    38    41    44    47    50    52    55    57    59    60    62    63    64    65    66    66    66   -71   -71   -70   -70   -69   -68   -66   -64   -63   -61   -58   -56   -53   -50   -47   -44   -40   -37   -33   -29   -25   -21   -17   -13    -9    -4     0     4     9    13    17    21    25    29    33    37    40    44    47    50    53    56    58    61    63    64    66    68    69    70    70    71    71   -75   -75   -74   -74   -73   -71   -70   -68   -66   -64   -62   -59   -56   -53   -50   -46   -43   -39   -35   -31   -27   -22   -18   -13    -9    -5     0     5     9    13    18    22    27    31    35    39    43    46    50    53    56    59    62    64    66    68    70    71    73    74    74    75    75   -79   -79   -78   -77   -76   -75   -74   -72   -70   -67   -65   -62   -59   -56   -52   -49   -45   -41   -37   -32   -28   -23   -19   -14    -9    -5     0     5     9    14    19    23    28    32    37    41    45    49    52    56    59    62    65    67    70    72    74    75    76    77    78    79    79   -82   -82   -82   -81   -80   -79   -77   -75   -73   -70   -68   -65   -62   -58   -55   -51   -47   -43   -38   -34   -29   -24   -20   -15   -10    -5     0     5    10    15    20    24    29    34    38    43    47    51    55    58    62    65    68    70    73    75    77    79    80    81    82    82    82   -86   -85   -85   -84   -83   -82   -80   -78   -76   -73   -70   -67   -64   -61   -57   -53   -49   -44   -40   -35   -30   -25   -20   -15   -10    -5     0     5    10    15    20    25    30    35    40    44    49    53    57    61    64    67    70    73    76    78    80    82    83    84    85    85    86   -89   -88   -88   -87   -86   -85   -83   -81   -78   -76   -73   -70   -66   -63   -59   -55   -50   -46   -41   -36   -31   -26   -21   -16   -11    -5     0     5    11    16    21    26    31    36    41    46    50    55    59    63    66    70    73    76    78    81    83    85    86    87    88    88    89   -91   -91   -91   -90   -89   -87   -85   -83   -81   -78   -75   -72   -68   -64   -60   -56   -52   -47   -42   -37   -32   -27   -22   -16   -11    -6     0     6    11    16    22    27    32    37    42    47    52    56    60    64    68    72    75    78    81    83    85    87    89    90    91    91    91   -94   -93   -93   -92   -91   -89   -87   -85   -83   -80   -77   -74   -70   -66   -62   -58   -53   -48   -43   -38   -33   -28   -22   -17   -11    -6     0     6    11    17    22    28    33    38    43    48    53    58    62    66    70    74    77    80    83    85    87    89    91    92    93    93    94   -95   -95   -95   -94   -93   -91   -89   -87   -85   -82   -79   -75   -71   -68   -63   -59   -54   -49   -44   -39   -34   -28   -23   -17   -12    -6     0     6    12    17    23    28    34    39    44    49    54    59    63    68    71    75    79    82    85    87    89    91    93    94    95    95    95   -97   -97   -96   -96   -94   -93   -91   -89   -86   -83   -80   -76   -73   -69   -64   -60   -55   -50   -45   -40   -34   -29   -23   -18   -12    -6     0     6    12    18    23    29    34    40    45    50    55    60    64    69    73    76    80    83    86    89    91    93    94    96    96    97    97   -98   -98   -98   -97   -96   -94   -92   -90   -87   -84   -81   -77   -74   -70   -65   -61   -56   -51   -46   -40   -35   -29   -24   -18   -12    -6     0     6    12    18    24    29    35    40    46    51    56    61    65    70    74    77    81    84    87    90    92    94    96    97    98    98    98   -99   -99   -99   -98   -96   -95   -93   -91   -88   -85   -82   -78   -74   -70   -66   -61   -56   -51   -46   -41   -35   -30   -24   -18   -12    -6     0     6    12    18    24    30    35    41    46    51    56    61    66    70    74    78    82    85    88    91    93    95    96    98    99    99    99  -100  -100   -99   -98   -97   -95   -93   -91   -88   -85   -82   -79   -75   -71   -66   -62   -57   -52   -46   -41   -35   -30   -24   -18   -12    -6     0     6    12    18    24    30    35    41    46    52    57    62    66    71    75    79    82    85    88    91    93    95    97    98    99   100   100  -100  -100   -99   -98   -97   -95   -94   -91   -89   -86   -82   -79   -75   -71   -66   -62   -57   -52   -46   -41   -35   -30   -24   -18   -12    -6     0     6    12    18    24    30    35    41    46    52    57    62    66    71    75    79    82    86    89    91    94    95    97    98    99   100   100
