# vtk DataFile Version 2.0
Volume example
ASCII
DATASET STRUCTURED_POINTS
DIMENSIONS 43 43 1
ASPECT_RATIO 1 1 1
ORIGIN 0 0 0
POINT_DATA 1849
SCALARS volume_scalars char 1
LOOKUP_TABLE default
100   100    99    97    96    93    90    87    83    78    73    68    62    56    50    43    37    29    22    15     7    -0    -7   -15   -22   -29   -37   -43   -50   -56   -62   -68   -73   -78   -83   -87   -90   -93   -96   -97   -99  -100  -100   100    99    99    97    95    93    90    86    82    78    73    68    62    56    50    43    36    29    22    15     7    -0    -7   -15   -22   -29   -36   -43   -50   -56   -62   -68   -73   -78   -82   -86   -90   -93   -95   -97   -99   -99  -100    99    99    98    96    94    92    89    86    82    77    72    67    62    56    49    43    36    29    22    15     7    -0    -7   -15   -22   -29   -36   -43   -49   -56   -62   -67   -72   -77   -82   -86   -89   -92   -94   -96   -98   -99   -99    97    97    96    95    93    91    88    84    81    76    71    66    61    55    49    42    36    29    22    15     7    -0    -7   -15   -22   -29   -36   -42   -49   -55   -61   -66   -71   -76   -81   -84   -88   -91   -93   -95   -96   -97   -97    96    95    94    93    91    89    86    83    79    75    70    65    60    54    48    41    35    28    21    14     7    -0    -7   -14   -21   -28   -35   -41   -48   -54   -60   -65   -70   -75   -79   -83   -86   -89   -91   -93   -94   -95   -96    93    93    92    91    89    87    84    81    77    73    68    63    58    52    47    40    34    27    21    14     7    -0    -7   -14   -21   -27   -34   -40   -47   -52   -58   -63   -68   -73   -77   -81   -84   -87   -89   -91   -92   -93   -93    90    90    89    88    86    84    81    78    74    70    66    61    56    51    45    39    33    27    20    13     7    -0    -7   -13   -20   -27   -33   -39   -45   -51   -56   -61   -66   -70   -74   -78   -81   -84   -86   -88   -89   -90   -90    87    86    86    84    83    81    78    75    72    68    63    59    54    49    43    38    32    26    19    13     6    -0    -6   -13   -19   -26   -32   -38   -43   -49   -54   -59   -63   -68   -72   -75   -78   -81   -83   -84   -86   -86   -87    83    82    82    81    79    77    74    72    68    65    61    56    52    47    41    36    30    24    18    12     6    -0    -6   -12   -18   -24   -30   -36   -41   -47   -52   -56   -61   -65   -68   -72   -74   -77   -79   -81   -82   -82   -83    78    78    77    76    75    73    70    68    65    61    57    53    49    44    39    34    29    23    17    12     6    -0    -6   -12   -17   -23   -29   -34   -39   -44   -49   -53   -57   -61   -65   -68   -70   -73   -75   -76   -77   -78   -78    73    73    72    71    70    68    66    63    61    57    54    50    46    41    37    32    27    22    16    11     5    -0    -5   -11   -16   -22   -27   -32   -37   -41   -46   -50   -54   -57   -61   -63   -66   -68   -70   -71   -72   -73   -73    68    68    67    66    65    63    61    59    56    53    50    46    42    38    34    30    25    20    15    10     5    -0    -5   -10   -15   -20   -25   -30   -34   -38   -42   -46   -50   -53   -56   -59   -61   -63   -65   -66   -67   -68   -68    62    62    62    61    60    58    56    54    52    49    46    42    39    35    31    27    23    18    14     9     5    -0    -5    -9   -14   -18   -23   -27   -31   -35   -39   -42   -46   -49   -52   -54   -56   -58   -60   -61   -62   -62   -62    56    56    56    55    54    52    51    49    47    44    41    38    35    32    28    24    21    17    13     8     4    -0    -4    -8   -13   -17   -21   -24   -28   -32   -35   -38   -41   -44   -47   -49   -51   -52   -54   -55   -56   -56   -56    50    50    49    49    48    47    45    43    41    39    37    34    31    28    25    22    18    15    11     7     4    -0    -4    -7   -11   -15   -18   -22   -25   -28   -31   -34   -37   -39   -41   -43   -45   -47   -48   -49   -49   -50   -50    43    43    43    42    41    40    39    38    36    34    32    30    27    24    22    19    16    13    10     6     3    -0    -3    -6   -10   -13   -16   -19   -22   -24   -27   -30   -32   -34   -36   -38   -39   -40   -41   -42   -43   -43   -43    37    36    36    36    35    34    33    32    30    29    27    25    23    21    18    16    13    11     8     5     3    -0    -3    -5    -8   -11   -13   -16   -18   -21   -23   -25   -27   -29   -30   -32   -33   -34   -35   -36   -36   -36   -37    29    29    29    29    28    27    27    26    24    23    22    20    18    17    15    13    11     9     7     4     2    -0    -2    -4    -7    -9   -11   -13   -15   -17   -18   -20   -22   -23   -24   -26   -27   -27   -28   -29   -29   -29   -29    22    22    22    22    21    21    20    19    18    17    16    15    14    13    11    10     8     7     5     3     2    -0    -2    -3    -5    -7    -8   -10   -11   -13   -14   -15   -16   -17   -18   -19   -20   -21   -21   -22   -22   -22   -22    15    15    15    15    14    14    13    13    12    12    11    10     9     8     7     6     5     4     3     2     1    -0    -1    -2    -3    -4    -5    -6    -7    -8    -9   -10   -11   -12   -12   -13   -13   -14   -14   -15   -15   -15   -15     7     7     7     7     7     7     7     6     6     6     5     5     5     4     4     3     3     2     2     1     1    -0    -1    -1    -2    -2    -3    -3    -4    -4    -5    -5    -5    -6    -6    -6    -7    -7    -7    -7    -7    -7    -7     0     0     0     0     0     0     0     0     0     0     0    -0    -0    -0    -0    -0    -0    -0    -0    -0    -0    -0    -0    -0    -0    -0    -0    -0    -0    -0    -0    -0    -0    -0    -0    -0    -0    -0     0     0     0     0     0    -7    -7    -7    -7    -7    -7    -7    -6    -6    -6    -5    -5    -5    -4    -4    -3    -3    -2    -2    -1    -1    -0     1     1     2     2     3     3     4     4     5     5     5     6     6     6     7     7     7     7     7     7     7   -15   -15   -15   -15   -14   -14   -13   -13   -12   -12   -11   -10    -9    -8    -7    -6    -5    -4    -3    -2    -1    -0     1     2     3     4     5     6     7     8     9    10    11    12    12    13    13    14    14    15    15    15    15   -22   -22   -22   -22   -21   -21   -20   -19   -18   -17   -16   -15   -14   -13   -11   -10    -8    -7    -5    -3    -2    -0     2     3     5     7     8    10    11    13    14    15    16    17    18    19    20    21    21    22    22    22    22   -29   -29   -29   -29   -28   -27   -27   -26   -24   -23   -22   -20   -18   -17   -15   -13   -11    -9    -7    -4    -2    -0     2     4     7     9    11    13    15    17    18    20    22    23    24    26    27    27    28    29    29    29    29   -37   -36   -36   -36   -35   -34   -33   -32   -30   -29   -27   -25   -23   -21   -18   -16   -13   -11    -8    -5    -3    -0     3     5     8    11    13    16    18    21    23    25    27    29    30    32    33    34    35    36    36    36    37   -43   -43   -43   -42   -41   -40   -39   -38   -36   -34   -32   -30   -27   -24   -22   -19   -16   -13   -10    -6    -3    -0     3     6    10    13    16    19    22    24    27    30    32    34    36    38    39    40    41    42    43    43    43   -50   -50   -49   -49   -48   -47   -45   -43   -41   -39   -37   -34   -31   -28   -25   -22   -18   -15   -11    -7    -4    -0     4     7    11    15    18    22    25    28    31    34    37    39    41    43    45    47    48    49    49    50    50   -56   -56   -56   -55   -54   -52   -51   -49   -47   -44   -41   -38   -35   -32   -28   -24   -21   -17   -13    -8    -4    -0     4     8    13    17    21    24    28    32    35    38    41    44    47    49    51    52    54    55    56    56    56   -62   -62   -62   -61   -60   -58   -56   -54   -52   -49   -46   -42   -39   -35   -31   -27   -23   -18   -14    -9    -5    -0     5     9    14    18    23    27    31    35    39    42    46    49    52    54    56    58    60    61    62    62    62   -68   -68   -67   -66   -65   -63   -61   -59   -56   -53   -50   -46   -42   -38   -34   -30   -25   -20   -15   -10    -5    -0     5    10    15    20    25    30    34    38    42    46    50    53    56    59    61    63    65    66    67    68    68   -73   -73   -72   -71   -70   -68   -66   -63   -61   -57   -54   -50   -46   -41   -37   -32   -27   -22   -16   -11    -5    -0     5    11    16    22    27    32    37    41    46    50    54    57    61    63    66    68    70    71    72    73    73   -78   -78   -77   -76   -75   -73   -70   -68   -65   -61   -57   -53   -49   -44   -39   -34   -29   -23   -17   -12    -6    -0     6    12    17    23    29    34    39    44    49    53    57    61    65    68    70    73    75    76    77    78    78   -83   -82   -82   -81   -79   -77   -74   -72   -68   -65   -61   -56   -52   -47   -41   -36   -30   -24   -18   -12    -6    -0     6    12    18    24    30    36    41    47    52    56    61    65    68    72    74    77    79    81    82    82    83   -87   -86   -86   -84   -83   -81   -78   -75   -72   -68   -63   -59   -54   -49   -43   -38   -32   -26   -19   -13    -6    -0     6    13    19    26    32    38    43    49    54    59    63    68    72    75    78    81    83    84    86    86    87   -90   -90   -89   -88   -86   -84   -81   -78   -74   -70   -66   -61   -56   -51   -45   -39   -33   -27   -20   -13    -7    -0     7    13    20    27    33    39    45    51    56    61    66    70    74    78    81    84    86    88    89    90    90   -93   -93   -92   -91   -89   -87   -84   -81   -77   -73   -68   -63   -58   -52   -47   -40   -34   -27   -21   -14    -7    -0     7    14    21    27    34    40    47    52    58    63    68    73    77    81    84    87    89    91    92    93    93   -96   -95   -94   -93   -91   -89   -86   -83   -79   -75   -70   -65   -60   -54   -48   -41   -35   -28   -21   -14    -7    -0     7    14    21    28    35    41    48    54    60    65    70    75    79    83    86    89    91    93    94    95    96   -97   -97   -96   -95   -93   -91   -88   -84   -81   -76   -71   -66   -61   -55   -49   -42   -36   -29   -22   -15    -7    -0     7    15    22    29    36    42    49    55    61    66    71    76    81    84    88    91    93    95    96    97    97   -99   -99   -98   -96   -94   -92   -89   -86   -82   -77   -72   -67   -62   -56   -49   -43   -36   -29   -22   -15    -7    -0     7    15    22    29    36    43    49    56    62    67    72    77    82    86    89    92    94    96    98    99    99  -100   -99   -99   -97   -95   -93   -90   -86   -82   -78   -73   -68   -62   -56   -50   -43   -36   -29   -22   -15    -7    -0     7    15    22    29    36    43    50    56    62    68    73    78    82    86    90    93    95    97    99    99   100  -100  -100   -99   -97   -96   -93   -90   -87   -83   -78   -73   -68   -62   -56   -50   -43   -37   -29   -22   -15    -7    -0     7    15    22    29    37    43    50    56    62    68    73    78    83    87    90    93    96    97    99   100   100
